 Entering Gaussian System, Link 0=g16
 Initial command:
 /share/software/user/restricted/gaussian/g16.B01/l1.exe "/home/users/jlapier/Chloroaromatics/Gau-23415.inp" -scrdir="/home/users/jlapier/Chloroaromatics/"
 Entering Link 1 = /share/software/user/restricted/gaussian/g16.B01/l1.exe PID=     23416.
  
 Copyright (c) 1988-2017, Gaussian, Inc.  All Rights Reserved.
  
 This is part of the Gaussian(R) 16 program.  It is based on
 the Gaussian(R) 09 system (copyright 2009, Gaussian, Inc.),
 the Gaussian(R) 03 system (copyright 2003, Gaussian, Inc.),
 the Gaussian(R) 98 system (copyright 1998, Gaussian, Inc.),
 the Gaussian(R) 94 system (copyright 1995, Gaussian, Inc.),
 the Gaussian 92(TM) system (copyright 1992, Gaussian, Inc.),
 the Gaussian 90(TM) system (copyright 1990, Gaussian, Inc.),
 the Gaussian 88(TM) system (copyright 1988, Gaussian, Inc.),
 the Gaussian 86(TM) system (copyright 1986, Carnegie Mellon
 University), and the Gaussian 82(TM) system (copyright 1983,
 Carnegie Mellon University). Gaussian is a federally registered
 trademark of Gaussian, Inc.
  
 This software contains proprietary and confidential information,
 including trade secrets, belonging to Gaussian, Inc.
  
 This software is provided under written license and may be
 used, copied, transmitted, or stored only in accord with that
 written license.
  
 The following legend is applicable only to US Government
 contracts under FAR:
  
                    RESTRICTED RIGHTS LEGEND
  
 Use, reproduction and disclosure by the US Government is
 subject to restrictions as set forth in subparagraphs (a)
 and (c) of the Commercial Computer Software - Restricted
 Rights clause in FAR 52.227-19.
  
 Gaussian, Inc.
 340 Quinnipiac St., Bldg. 40, Wallingford CT 06492
  
  
 ---------------------------------------------------------------
 Warning -- This program may not be used in any manner that
 competes with the business of Gaussian, Inc. or will provide
 assistance to any competitor of Gaussian, Inc.  The licensee
 of this program is prohibited from giving any competitor of
 Gaussian, Inc. access to this program.  By using this program,
 the user acknowledges that Gaussian, Inc. is engaged in the
 business of creating and licensing software in the field of
 computational chemistry and represents and warrants to the
 licensee that it is not a competitor of Gaussian, Inc. and that
 it will not use this program in any manner prohibited above.
 ---------------------------------------------------------------
  

 Cite this work as:
 Gaussian 16, Revision B.01,
 M. J. Frisch, G. W. Trucks, H. B. Schlegel, G. E. Scuseria, 
 M. A. Robb, J. R. Cheeseman, G. Scalmani, V. Barone, 
 G. A. Petersson, H. Nakatsuji, X. Li, M. Caricato, A. V. Marenich, 
 J. Bloino, B. G. Janesko, R. Gomperts, B. Mennucci, H. P. Hratchian, 
 J. V. Ortiz, A. F. Izmaylov, J. L. Sonnenberg, D. Williams-Young, 
 F. Ding, F. Lipparini, F. Egidi, J. Goings, B. Peng, A. Petrone, 
 T. Henderson, D. Ranasinghe, V. G. Zakrzewski, J. Gao, N. Rega, 
 G. Zheng, W. Liang, M. Hada, M. Ehara, K. Toyota, R. Fukuda, 
 J. Hasegawa, M. Ishida, T. Nakajima, Y. Honda, O. Kitao, H. Nakai, 
 T. Vreven, K. Throssell, J. A. Montgomery, Jr., J. E. Peralta, 
 F. Ogliaro, M. J. Bearpark, J. J. Heyd, E. N. Brothers, K. N. Kudin, 
 V. N. Staroverov, T. A. Keith, R. Kobayashi, J. Normand, 
 K. Raghavachari, A. P. Rendell, J. C. Burant, S. S. Iyengar, 
 J. Tomasi, M. Cossi, J. M. Millam, M. Klene, C. Adamo, R. Cammi, 
 J. W. Ochterski, R. L. Martin, K. Morokuma, O. Farkas, 
 J. B. Foresman, and D. J. Fox, Gaussian, Inc., Wallingford CT, 2016.
 
 ******************************************
 Gaussian 16:  ES64L-G16RevB.01 20-Dec-2017
                 8-Dec-2025 
 ******************************************
 %mem=8GB
 %nprocshare=4
 Will use up to    4 processors via shared memory.
 %chk=geometry_chks/monobromobenzene.chk
 ---------------------------
 # opt am1 geom=connectivity
 ---------------------------
 1/18=20,19=15,26=1,38=1,57=2/1,3;
 2/9=110,12=2,17=6,18=5,40=1/2;
 3/5=2,25=1,41=700000,71=1/1,2,3;
 4/35=1/1;
 5/5=2,35=1,38=5/2;
 6/7=2,8=2,9=2,10=2,28=1/1;
 7//1,2,3,16;
 1/18=20,19=15,26=1/3(2);
 2/9=110/2;
 99//99;
 2/9=110/2;
 3/5=2,25=1,41=700000,71=1,135=20/1,2,3;
 4/5=5,16=3,35=1/1;
 5/5=2,35=1,38=5/2;
 7//1,2,3,16;
 1/18=20,19=15,26=1/3(-5);
 2/9=110/2;
 6/7=2,8=2,9=2,10=2,19=2,28=1/1;
 99/9=1/99;
 ------------
 Bromobenzene
 ------------
 Symbolic Z-matrix:
 Charge =  0 Multiplicity = 1
 C                    -0.42331   4.82518   1.52723 
 C                     0.97185   4.82518   1.52723 
 C                     1.66939   6.03293   1.52723 
 C                     0.97173   7.24144   1.52603 
 C                    -0.42309   7.24136   1.52555 
 C                    -1.12069   6.03316   1.52655 
 H                    -0.97307   3.87287   1.52768 
 H                     2.76907   6.03301   1.52787 
 H                     1.52193   8.19359   1.52597 
 H                    -0.97321   8.19365   1.5246 
 H                    -2.2203    6.03334   1.52637 
 Br                    1.92629   3.17075   1.52952 
 

 GradGradGradGradGradGradGradGradGradGradGradGradGradGradGradGradGradGrad
 Berny optimization.
 Initialization pass.
                           ----------------------------
                           !    Initial Parameters    !
                           ! (Angstroms and Degrees)  !
 --------------------------                            --------------------------
 ! Name  Definition              Value          Derivative Info.                !
 --------------------------------------------------------------------------------
 ! R1    R(1,2)                  1.3952         estimate D2E/DX2                !
 ! R2    R(1,6)                  1.3948         estimate D2E/DX2                !
 ! R3    R(1,7)                  1.0996         estimate D2E/DX2                !
 ! R4    R(2,3)                  1.3947         estimate D2E/DX2                !
 ! R5    R(2,12)                 1.91           estimate D2E/DX2                !
 ! R6    R(3,4)                  1.3954         estimate D2E/DX2                !
 ! R7    R(3,8)                  1.0997         estimate D2E/DX2                !
 ! R8    R(4,5)                  1.3948         estimate D2E/DX2                !
 ! R9    R(4,9)                  1.0997         estimate D2E/DX2                !
 ! R10   R(5,6)                  1.3951         estimate D2E/DX2                !
 ! R11   R(5,10)                 1.0998         estimate D2E/DX2                !
 ! R12   R(6,11)                 1.0996         estimate D2E/DX2                !
 ! A1    A(2,1,6)              119.9985         estimate D2E/DX2                !
 ! A2    A(2,1,7)              119.9972         estimate D2E/DX2                !
 ! A3    A(6,1,7)              120.0043         estimate D2E/DX2                !
 ! A4    A(1,2,3)              120.0086         estimate D2E/DX2                !
 ! A5    A(1,2,12)             119.9808         estimate D2E/DX2                !
 ! A6    A(3,2,12)             120.0106         estimate D2E/DX2                !
 ! A7    A(2,3,4)              119.9942         estimate D2E/DX2                !
 ! A8    A(2,3,8)              120.0128         estimate D2E/DX2                !
 ! A9    A(4,3,8)              119.993          estimate D2E/DX2                !
 ! A10   A(3,4,5)              119.994          estimate D2E/DX2                !
 ! A11   A(3,4,9)              119.9811         estimate D2E/DX2                !
 ! A12   A(5,4,9)              120.0249         estimate D2E/DX2                !
 ! A13   A(4,5,6)              120.0047         estimate D2E/DX2                !
 ! A14   A(4,5,10)             120.0113         estimate D2E/DX2                !
 ! A15   A(6,5,10)             119.984          estimate D2E/DX2                !
 ! A16   A(1,6,5)              120.0            estimate D2E/DX2                !
 ! A17   A(1,6,11)             120.008          estimate D2E/DX2                !
 ! A18   A(5,6,11)             119.992          estimate D2E/DX2                !
 ! D1    D(6,1,2,3)              0.0323         estimate D2E/DX2                !
 ! D2    D(6,1,2,12)           179.9532         estimate D2E/DX2                !
 ! D3    D(7,1,2,3)           -179.9729         estimate D2E/DX2                !
 ! D4    D(7,1,2,12)            -0.052          estimate D2E/DX2                !
 ! D5    D(2,1,6,5)              0.0149         estimate D2E/DX2                !
 ! D6    D(2,1,6,11)           179.9892         estimate D2E/DX2                !
 ! D7    D(7,1,6,5)           -179.9798         estimate D2E/DX2                !
 ! D8    D(7,1,6,11)            -0.0056         estimate D2E/DX2                !
 ! D9    D(1,2,3,4)             -0.0568         estimate D2E/DX2                !
 ! D10   D(1,2,3,8)            179.9619         estimate D2E/DX2                !
 ! D11   D(12,2,3,4)          -179.9777         estimate D2E/DX2                !
 ! D12   D(12,2,3,8)             0.041          estimate D2E/DX2                !
 ! D13   D(2,3,4,5)              0.0341         estimate D2E/DX2                !
 ! D14   D(2,3,4,9)           -179.9964         estimate D2E/DX2                !
 ! D15   D(8,3,4,5)           -179.9846         estimate D2E/DX2                !
 ! D16   D(8,3,4,9)             -0.0151         estimate D2E/DX2                !
 ! D17   D(3,4,5,6)              0.0131         estimate D2E/DX2                !
 ! D18   D(3,4,5,10)          -179.9995         estimate D2E/DX2                !
 ! D19   D(9,4,5,6)           -179.9563         estimate D2E/DX2                !
 ! D20   D(9,4,5,10)             0.0311         estimate D2E/DX2                !
 ! D21   D(4,5,6,1)             -0.0376         estimate D2E/DX2                !
 ! D22   D(4,5,6,11)           179.9881         estimate D2E/DX2                !
 ! D23   D(10,5,6,1)           179.975          estimate D2E/DX2                !
 ! D24   D(10,5,6,11)            0.0007         estimate D2E/DX2                !
 --------------------------------------------------------------------------------
 Trust Radius=3.00D-01 FncErr=1.00D-07 GrdErr=1.00D-07 EigMax=2.50D+02 EigMin=1.00D-04
 Number of steps in this run=     64 maximum allowed number of steps=    100.
 GradGradGradGradGradGradGradGradGradGradGradGradGradGradGradGradGradGrad

                          Input orientation:                          
 ---------------------------------------------------------------------
 Center     Atomic      Atomic             Coordinates (Angstroms)
 Number     Number       Type             X           Y           Z
 ---------------------------------------------------------------------
      1          6           0       -0.423311    4.825182    1.527231
      2          6           0        0.971849    4.825182    1.527231
      3          6           0        1.669387    6.032933    1.527231
      4          6           0        0.971733    7.241442    1.526032
      5          6           0       -0.423092    7.241364    1.525553
      6          6           0       -1.120693    6.033158    1.526549
      7          1           0       -0.973070    3.872865    1.527681
      8          1           0        2.769067    6.033013    1.527865
      9          1           0        1.521933    8.193585    1.525973
     10          1           0       -0.973214    8.193645    1.524600
     11          1           0       -2.220297    6.033341    1.526369
     12         35           0        1.926294    3.170755    1.529515
 ---------------------------------------------------------------------
                    Distance matrix (angstroms):
                    1          2          3          4          5
     1  C    0.000000
     2  C    1.395160   0.000000
     3  C    2.416205   1.394712   0.000000
     4  C    2.790065   2.416260   1.395427   0.000000
     5  C    2.416183   2.789946   2.416356   1.394825   0.000000
     6  C    1.394829   2.416183   2.790080   2.416236   1.395138
     7  H    1.099610   2.165553   3.412986   3.889675   3.413102
     8  H    3.413229   2.165375   1.099680   2.165806   3.413209
     9  H    3.889745   3.413024   2.165678   1.099680   2.165606
    10  H    3.413055   3.889707   3.413506   2.165528   1.099761
    11  H    2.165365   3.413128   3.889684   3.412999   2.165471
    12  Br   2.873635   1.910000   2.873686   4.181112   4.699946
                    6          7          8          9         10
     6  C    0.000000
     7  H    2.165331   0.000000
     8  H    3.889760   4.320860   0.000000
     9  H    3.413344   4.989355   2.494678   0.000000
    10  H    2.165516   4.320781   4.321228   2.495147   0.000000
    11  H    1.099604   2.494641   4.989364   4.320988   2.494420
    12  Br   4.180609   2.983165   2.983755   5.039082   5.799707
                   11         12
    11  H    0.000000
    12  Br   5.038713   0.000000
 Stoichiometry    C6H5Br
 Framework group  C1[X(C6H5Br)]
 Deg. of freedom    30
 Full point group                 C1      NOp   1
 Largest Abelian subgroup         C1      NOp   1
 Largest concise Abelian subgroup C1      NOp   1
                         Standard orientation:                         
 ---------------------------------------------------------------------
 Center     Atomic      Atomic             Coordinates (Angstroms)
 Number     Number       Type             X           Y           Z
 ---------------------------------------------------------------------
      1          6           0       -0.791623   -1.208044   -0.000166
      2          6           0       -0.094243    0.000316   -0.000645
      3          6           0       -0.791616    1.208161    0.000023
      4          6           0       -2.187043    1.207999   -0.000028
      5          6           0       -2.884189   -0.000109   -0.000028
      6          6           0       -2.186452   -1.208237    0.000299
      7          1           0       -0.241614   -2.160217   -0.000243
      8          1           0       -0.242003    2.160643    0.000280
      9          1           0       -2.736680    2.160467    0.000440
     10          1           0       -3.983950   -0.000570   -0.000076
     11          1           0       -2.736255   -2.160521    0.000497
     12         35           0        1.815757   -0.000009    0.000068
 ---------------------------------------------------------------------
 Rotational constants (GHZ):           5.6864693           0.9779389           0.8344356
 Standard basis: VSTO-6G (5D, 7F)
 There are    33 symmetry adapted cartesian basis functions of A   symmetry.
 There are    33 symmetry adapted basis functions of A   symmetry.
    33 basis functions,   198 primitive gaussians,    33 cartesian basis functions
    18 alpha electrons       18 beta electrons
       nuclear repulsion energy       157.4004638675 Hartrees.
 Integral buffers will be    131072 words long.
 Regular integral format.
 Two-electron integral symmetry is turned off.
 Do NDO integrals.
 One-electron integrals computed using PRISM.
 NBasis=    33 RedAO= F EigKep=  0.00D+00  NBF=    33
 NBsUse=    33 1.00D-04 EigRej=  0.00D+00 NBFU=    33
 Nonelectrostatic core Hamiltonian diagonalized for initial guess.
 Keep J ints in memory in canonical form, NReq=862182.
 Overlap will be assumed to be unity.
 Requested convergence on RMS density matrix=1.00D-08 within 128 cycles.
 Requested convergence on MAX density matrix=1.00D-06.
 Requested convergence on             energy=1.00D-06.
 No special actions if energy rises.
 SCF Done:  E(RAM1) =  0.430582377531E-01 A.U. after   14 cycles
            NFock= 13  Conv=0.84D-08     -V/T= 1.0006

 **********************************************************************

            Population analysis using the SCF Density.

 **********************************************************************

 Orbital symmetries:
       Occupied  (A) (A) (A) (A) (A) (A) (A) (A) (A) (A) (A) (A)
                 (A) (A) (A) (A) (A) (A)
       Virtual   (A) (A) (A) (A) (A) (A) (A) (A) (A) (A) (A) (A)
                 (A) (A) (A)
 The electronic state is 1-A.
 Alpha  occ. eigenvalues --   -1.45296  -1.21424  -1.16738  -1.10164  -0.86559
 Alpha  occ. eigenvalues --   -0.84619  -0.66256  -0.59751  -0.58835  -0.53278
 Alpha  occ. eigenvalues --   -0.52986  -0.51732  -0.45284  -0.44814  -0.43176
 Alpha  occ. eigenvalues --   -0.41006  -0.36700  -0.35480
 Alpha virt. eigenvalues --    0.00244   0.00843   0.02385   0.09445   0.13558
 Alpha virt. eigenvalues --    0.13680   0.14165   0.15271   0.15580   0.16805
 Alpha virt. eigenvalues --    0.17594   0.18841   0.19008   0.19686   0.20957
          Condensed to atoms (all electrons):
               1          2          3          4          5          6
     1  C    4.104168   0.000000   0.000000   0.000000   0.000000   0.000000
     2  C    0.000000   4.153548   0.000000   0.000000   0.000000   0.000000
     3  C    0.000000   0.000000   4.104141   0.000000   0.000000   0.000000
     4  C    0.000000   0.000000   0.000000   4.129187   0.000000   0.000000
     5  C    0.000000   0.000000   0.000000   0.000000   4.118499   0.000000
     6  C    0.000000   0.000000   0.000000   0.000000   0.000000   4.129184
     7  H    0.000000   0.000000   0.000000   0.000000   0.000000   0.000000
     8  H    0.000000   0.000000   0.000000   0.000000   0.000000   0.000000
     9  H    0.000000   0.000000   0.000000   0.000000   0.000000   0.000000
    10  H    0.000000   0.000000   0.000000   0.000000   0.000000   0.000000
    11  H    0.000000   0.000000   0.000000   0.000000   0.000000   0.000000
    12  Br   0.000000   0.000000   0.000000   0.000000   0.000000   0.000000
               7          8          9         10         11         12
     1  C    0.000000   0.000000   0.000000   0.000000   0.000000   0.000000
     2  C    0.000000   0.000000   0.000000   0.000000   0.000000   0.000000
     3  C    0.000000   0.000000   0.000000   0.000000   0.000000   0.000000
     4  C    0.000000   0.000000   0.000000   0.000000   0.000000   0.000000
     5  C    0.000000   0.000000   0.000000   0.000000   0.000000   0.000000
     6  C    0.000000   0.000000   0.000000   0.000000   0.000000   0.000000
     7  H    0.854390   0.000000   0.000000   0.000000   0.000000   0.000000
     8  H    0.000000   0.854375   0.000000   0.000000   0.000000   0.000000
     9  H    0.000000   0.000000   0.861786   0.000000   0.000000   0.000000
    10  H    0.000000   0.000000   0.000000   0.864490   0.000000   0.000000
    11  H    0.000000   0.000000   0.000000   0.000000   0.861808   0.000000
    12  Br   0.000000   0.000000   0.000000   0.000000   0.000000   6.964425
 Mulliken charges:
               1
     1  C   -0.104168
     2  C   -0.153548
     3  C   -0.104141
     4  C   -0.129187
     5  C   -0.118499
     6  C   -0.129184
     7  H    0.145610
     8  H    0.145625
     9  H    0.138214
    10  H    0.135510
    11  H    0.138192
    12  Br   0.035575
 Sum of Mulliken charges =  -0.00000
 Mulliken charges with hydrogens summed into heavy atoms:
               1
     1  C    0.041442
     2  C   -0.153548
     3  C    0.041484
     4  C    0.009027
     5  C    0.017011
     6  C    0.009008
    12  Br   0.035575
 Charge=             -0.0000 electrons
 Dipole moment (field-independent basis, Debye):
    X=             -1.5253    Y=              0.0004    Z=              0.0008  Tot=              1.5253
 N-N= 1.574004638675D+02 E-N=-2.209209920421D+02  KE=-6.871184684433D+01
 Calling FoFJK, ICntrl=      2127 FMM=F ISym2X=0 I1Cent= 0 IOpClX= 0 NMat=1 NMatS=1 NMatT=0.
 ***** Axes restored to original set *****
 -------------------------------------------------------------------
 Center     Atomic                   Forces (Hartrees/Bohr)
 Number     Number              X              Y              Z
 -------------------------------------------------------------------
      1        6          -0.001648255   -0.002124925   -0.000024700
      2        6           0.005972386   -0.010742736    0.000137318
      3        6           0.002609691    0.000867749   -0.000069474
      4        6          -0.000772685   -0.001453346    0.000039743
      5        6          -0.000189267    0.000224490    0.000024373
      6        6           0.001544826    0.000369360   -0.000061534
      7        1          -0.001392042   -0.000573556    0.000003407
      8        1           0.001135530    0.000934473    0.000000577
      9        1           0.000427887   -0.000147418   -0.000017443
     10        1          -0.000107960    0.000217422    0.000002166
     11        1          -0.000154953   -0.000465049    0.000010923
     12       35          -0.007425158    0.012893536   -0.000045356
 -------------------------------------------------------------------
 Cartesian Forces:  Max     0.012893536 RMS     0.003323035

 GradGradGradGradGradGradGradGradGradGradGradGradGradGradGradGradGradGrad
 Berny optimization.
 FormGI is forming the generalized inverse of G from B-inverse, IUseBI=4.
 Internal  Forces:  Max     0.014878757 RMS     0.002167642
 Search for a local minimum.
 Step number   1 out of a maximum of   64
 All quantities printed in internal units (Hartrees-Bohrs-Radians)
 Mixed Optimization -- RFO/linear search
 Second derivative matrix not updated -- first step.
 ITU=  0
     Eigenvalues ---    0.02152   0.02153   0.02154   0.02155   0.02155
     Eigenvalues ---    0.02155   0.02155   0.02156   0.02157   0.16000
     Eigenvalues ---    0.16000   0.16000   0.16000   0.16000   0.17771
     Eigenvalues ---    0.22000   0.22000   0.23486   0.25000   0.33709
     Eigenvalues ---    0.33718   0.33718   0.33725   0.33726   0.42107
     Eigenvalues ---    0.42314   0.46412   0.46453   0.46466   0.46497
 RFO step:  Lambda=-1.36434495D-03 EMin= 2.15189832D-02
 Linear search not attempted -- first point.
 Iteration  1 RMS(Cart)=  0.01250716 RMS(Int)=  0.00001044
 Iteration  2 RMS(Cart)=  0.00001243 RMS(Int)=  0.00000127
 Iteration  3 RMS(Cart)=  0.00000000 RMS(Int)=  0.00000127
 Variable       Old X    -DE/DX   Delta X   Delta X   Delta X     New X
                                 (Linear)    (Quad)   (Total)
    R1        2.63647   0.00163   0.00000   0.00375   0.00375   2.64022
    R2        2.63584  -0.00054   0.00000  -0.00113  -0.00113   2.63471
    R3        2.07796   0.00119   0.00000   0.00352   0.00352   2.08148
    R4        2.63562   0.00185   0.00000   0.00419   0.00419   2.63982
    R5        3.60938  -0.01488   0.00000  -0.08309  -0.08309   3.52629
    R6        2.63697  -0.00092   0.00000  -0.00200  -0.00200   2.63497
    R7        2.07809   0.00114   0.00000   0.00335   0.00335   2.08145
    R8        2.63584   0.00032   0.00000   0.00043   0.00043   2.63627
    R9        2.07809   0.00009   0.00000   0.00026   0.00026   2.07835
   R10        2.63643   0.00026   0.00000   0.00033   0.00033   2.63676
   R11        2.07825   0.00024   0.00000   0.00072   0.00072   2.07896
   R12        2.07795   0.00015   0.00000   0.00046   0.00046   2.07841
    A1        2.09437  -0.00188   0.00000  -0.00770  -0.00770   2.08667
    A2        2.09435   0.00189   0.00000   0.00977   0.00977   2.10411
    A3        2.09447  -0.00002   0.00000  -0.00207  -0.00207   2.09240
    A4        2.09455   0.00190   0.00000   0.00865   0.00865   2.10320
    A5        2.09406  -0.00093   0.00000  -0.00424  -0.00424   2.08982
    A6        2.09458  -0.00097   0.00000  -0.00441  -0.00441   2.09017
    A7        2.09429  -0.00182   0.00000  -0.00755  -0.00755   2.08675
    A8        2.09462   0.00188   0.00000   0.00979   0.00979   2.10441
    A9        2.09427  -0.00006   0.00000  -0.00224  -0.00224   2.09203
   A10        2.09429   0.00081   0.00000   0.00327   0.00327   2.09756
   A11        2.09407  -0.00087   0.00000  -0.00449  -0.00449   2.08957
   A12        2.09483   0.00006   0.00000   0.00123   0.00123   2.09606
   A13        2.09448   0.00022   0.00000   0.00017   0.00017   2.09465
   A14        2.09459  -0.00013   0.00000  -0.00018  -0.00018   2.09441
   A15        2.09411  -0.00010   0.00000   0.00001   0.00001   2.09413
   A16        2.09440   0.00076   0.00000   0.00316   0.00316   2.09755
   A17        2.09453  -0.00086   0.00000  -0.00457  -0.00457   2.08996
   A18        2.09426   0.00010   0.00000   0.00141   0.00142   2.09567
    D1        0.00056  -0.00002   0.00000  -0.00083  -0.00083  -0.00027
    D2        3.14078   0.00003   0.00000   0.00111   0.00111  -3.14130
    D3       -3.14112  -0.00002   0.00000  -0.00082  -0.00082   3.14124
    D4       -0.00091   0.00003   0.00000   0.00112   0.00112   0.00022
    D5        0.00026  -0.00001   0.00000  -0.00028  -0.00029  -0.00003
    D6        3.14140   0.00001   0.00000   0.00036   0.00036  -3.14142
    D7       -3.14124  -0.00001   0.00000  -0.00030  -0.00030  -3.14154
    D8       -0.00010   0.00001   0.00000   0.00035   0.00035   0.00025
    D9       -0.00099   0.00003   0.00000   0.00139   0.00139   0.00040
   D10        3.14093   0.00002   0.00000   0.00092   0.00092  -3.14134
   D11       -3.14120  -0.00001   0.00000  -0.00055  -0.00055   3.14143
   D12        0.00072  -0.00002   0.00000  -0.00103  -0.00103  -0.00031
   D13        0.00060  -0.00002   0.00000  -0.00084  -0.00083  -0.00024
   D14       -3.14153  -0.00001   0.00000  -0.00020  -0.00020   3.14146
   D15       -3.14132  -0.00001   0.00000  -0.00036  -0.00036   3.14150
   D16       -0.00026   0.00001   0.00000   0.00027   0.00027   0.00001
   D17        0.00023  -0.00001   0.00000  -0.00029  -0.00028  -0.00006
   D18       -3.14158   0.00000   0.00000   0.00023   0.00023  -3.14135
   D19       -3.14083  -0.00002   0.00000  -0.00092  -0.00092   3.14144
   D20        0.00054  -0.00001   0.00000  -0.00040  -0.00040   0.00014
   D21       -0.00066   0.00002   0.00000   0.00084   0.00084   0.00019
   D22        3.14138   0.00000   0.00000   0.00020   0.00019   3.14158
   D23        3.14116   0.00001   0.00000   0.00033   0.00033   3.14149
   D24        0.00001  -0.00001   0.00000  -0.00032  -0.00032  -0.00031
         Item               Value     Threshold  Converged?
 Maximum Force            0.014879     0.000450     NO 
 RMS     Force            0.002168     0.000300     NO 
 Maximum Displacement     0.071572     0.001800     NO 
 RMS     Displacement     0.012510     0.001200     NO 
 Predicted change in Energy=-6.872667D-04
 GradGradGradGradGradGradGradGradGradGradGradGradGradGradGradGradGradGrad

                          Input orientation:                          
 ---------------------------------------------------------------------
 Center     Atomic      Atomic             Coordinates (Angstroms)
 Number     Number       Type             X           Y           Z
 ---------------------------------------------------------------------
      1          6           0       -0.425216    4.818738    1.527417
      2          6           0        0.971915    4.824851    1.528069
      3          6           0        1.675731    6.031523    1.527246
      4          6           0        0.974662    7.236828    1.526248
      5          6           0       -0.420391    7.236747    1.525789
      6          6           0       -1.118279    6.028505    1.526260
      7          1           0       -0.981042    3.867789    1.527734
      8          1           0        2.777169    6.037675    1.527518
      9          1           0        1.526096    8.188413    1.525729
     10          1           0       -0.970531    8.189455    1.524775
     11          1           0       -2.218125    6.027314    1.525911
     12         35           0        1.904600    3.208629    1.529138
 ---------------------------------------------------------------------
                    Distance matrix (angstroms):
                    1          2          3          4          5
     1  C    0.000000
     2  C    1.397145   0.000000
     3  C    2.425866   1.396931   0.000000
     4  C    2.794069   2.411980   1.394367   0.000000
     5  C    2.418014   2.784917   2.417911   1.395053   0.000000
     6  C    1.394229   2.411991   2.794013   2.416702   1.395312
     7  H    1.101474   2.174858   3.426396   3.895536   3.415290
     8  H    3.426526   2.174830   1.101455   2.164948   3.414992
     9  H    3.893884   3.408911   2.162075   1.099815   2.166675
    10  H    3.414544   3.885057   3.414583   2.165935   1.100140
    11  H    2.162217   3.409146   3.893859   3.414208   2.166696
    12  Br   2.832048   1.866032   2.832157   4.134148   4.650949
                    6          7          8          9         10
     6  C    0.000000
     7  H    2.165071   0.000000
     8  H    3.895460   4.339649   0.000000
     9  H    3.414370   4.995351   2.488145   0.000000
    10  H    2.165995   4.321680   4.321507   2.496627   0.000000
    11  H    1.099846   2.488761   4.995305   4.323140   2.496266
    12  Br   4.133946   2.959970   2.960554   4.994150   5.751089
                   11         12
    11  H    0.000000
    12  Br   4.994183   0.000000
 Stoichiometry    C6H5Br
 Framework group  C1[X(C6H5Br)]
 Deg. of freedom    30
 Full point group                 C1      NOp   1
 Largest Abelian subgroup         C1      NOp   1
 Largest concise Abelian subgroup C1      NOp   1
                         Standard orientation:                         
 ---------------------------------------------------------------------
 Center     Atomic      Atomic             Coordinates (Angstroms)
 Number     Number       Type             X           Y           Z
 ---------------------------------------------------------------------
      1          6           0       -0.769185   -1.212938    0.000063
      2          6           0       -0.076066    0.000157    0.000260
      3          6           0       -0.769320    1.212928   -0.000010
      4          6           0       -2.163679    1.208262    0.000007
      5          6           0       -2.860983   -0.000018    0.000005
      6          6           0       -2.163407   -1.208441   -0.000080
      7          1           0       -0.223431   -2.169703   -0.000056
      8          1           0       -0.224049    2.169946   -0.000095
      9          1           0       -2.712180    2.161540   -0.000075
     10          1           0       -3.961123   -0.000238   -0.000208
     11          1           0       -2.712179   -2.161599   -0.000069
     12         35           0        1.789966    0.000010   -0.000028
 ---------------------------------------------------------------------
 Rotational constants (GHZ):           5.6619062           1.0023614           0.8515979
 Standard basis: VSTO-6G (5D, 7F)
 There are    33 symmetry adapted cartesian basis functions of A   symmetry.
 There are    33 symmetry adapted basis functions of A   symmetry.
    33 basis functions,   198 primitive gaussians,    33 cartesian basis functions
    18 alpha electrons       18 beta electrons
       nuclear repulsion energy       157.7720292540 Hartrees.
 Integral buffers will be    131072 words long.
 Regular integral format.
 Two-electron integral symmetry is turned off.
 Do NDO integrals.
 One-electron integrals computed using PRISM.
 NBasis=    33 RedAO= F EigKep=  0.00D+00  NBF=    33
 NBsUse=    33 1.00D-04 EigRej=  0.00D+00 NBFU=    33
 Initial guess from the checkpoint file:  "geometry_chks/monobromobenzene.chk"
 B after Tr=     0.000000   -0.000000   -0.000000
         Rot=    1.000000    0.000000    0.000000    0.000005 Ang=   0.00 deg.
 Keep J ints in memory in canonical form, NReq=862182.
 Overlap will be assumed to be unity.
 Requested convergence on RMS density matrix=1.00D-08 within 128 cycles.
 Requested convergence on MAX density matrix=1.00D-06.
 Requested convergence on             energy=1.00D-06.
 No special actions if energy rises.
 SCF Done:  E(RAM1) =  0.425527760902E-01 A.U. after   12 cycles
            NFock= 11  Conv=0.72D-08     -V/T= 1.0006
 Calling FoFJK, ICntrl=      2127 FMM=F ISym2X=0 I1Cent= 0 IOpClX= 0 NMat=1 NMatS=1 NMatT=0.
 ***** Axes restored to original set *****
 -------------------------------------------------------------------
 Center     Atomic                   Forces (Hartrees/Bohr)
 Number     Number              X              Y              Z
 -------------------------------------------------------------------
      1        6          -0.000905754    0.001285287    0.000004714
      2        6           0.000448829   -0.000974138   -0.000052016
      3        6          -0.000611780    0.001530557    0.000031844
      4        6          -0.000632934    0.000289866   -0.000007188
      5        6          -0.000080194   -0.000133924   -0.000023704
      6        6           0.000102686    0.000854545    0.000025218
      7        1           0.000090281    0.000416391    0.000005168
      8        1          -0.000387197    0.000104008   -0.000000706
      9        1           0.000049639    0.000176134    0.000000877
     10        1           0.000032111   -0.000045455    0.000009708
     11        1          -0.000150838    0.000017598   -0.000007927
     12       35           0.002045151   -0.003520869    0.000014012
 -------------------------------------------------------------------
 Cartesian Forces:  Max     0.003520869 RMS     0.000826234

 GradGradGradGradGradGradGradGradGradGradGradGradGradGradGradGradGradGrad
 Berny optimization.
 Using GEDIIS/GDIIS optimizer.
 FormGI is forming the generalized inverse of G from B-inverse, IUseBI=4.
 Internal  Forces:  Max     0.004071742 RMS     0.000841390
 Search for a local minimum.
 Step number   2 out of a maximum of   64
 All quantities printed in internal units (Hartrees-Bohrs-Radians)
 Mixed Optimization -- En-DIIS/RFO-DIIS
 Update second derivatives using D2CorX and points    1    2
 DE= -5.05D-04 DEPred=-6.87D-04 R= 7.35D-01
 TightC=F SS=  1.41D+00  RLast= 8.64D-02 DXNew= 5.0454D-01 2.5931D-01
 Trust test= 7.35D-01 RLast= 8.64D-02 DXMaxT set to 3.00D-01
 ITU=  1  0
 Use linear search instead of GDIIS.
     Eigenvalues ---    0.02152   0.02153   0.02154   0.02155   0.02155
     Eigenvalues ---    0.02155   0.02156   0.02156   0.02157   0.15841
     Eigenvalues ---    0.16000   0.16000   0.16000   0.16001   0.19523
     Eigenvalues ---    0.21959   0.22000   0.25000   0.27479   0.33707
     Eigenvalues ---    0.33710   0.33721   0.33723   0.33862   0.42128
     Eigenvalues ---    0.42739   0.46285   0.46449   0.46467   0.46712
 RFO step:  Lambda=-3.69173874D-05 EMin= 2.15191506D-02
 Quartic linear search produced a step of -0.21079.
 Iteration  1 RMS(Cart)=  0.00383371 RMS(Int)=  0.00000432
 Iteration  2 RMS(Cart)=  0.00000659 RMS(Int)=  0.00000131
 Iteration  3 RMS(Cart)=  0.00000000 RMS(Int)=  0.00000131
 Variable       Old X    -DE/DX   Delta X   Delta X   Delta X     New X
                                 (Linear)    (Quad)   (Total)
    R1        2.64022   0.00157  -0.00079   0.00371   0.00292   2.64314
    R2        2.63471   0.00068   0.00024   0.00086   0.00110   2.63582
    R3        2.08148  -0.00041  -0.00074  -0.00009  -0.00083   2.08066
    R4        2.63982   0.00166  -0.00088   0.00397   0.00309   2.64290
    R5        3.52629   0.00407   0.01751  -0.00273   0.01478   3.54107
    R6        2.63497   0.00066   0.00042   0.00065   0.00107   2.63604
    R7        2.08145  -0.00039  -0.00071  -0.00009  -0.00079   2.08066
    R8        2.63627  -0.00067  -0.00009  -0.00116  -0.00125   2.63502
    R9        2.07835   0.00018  -0.00005   0.00048   0.00042   2.07877
   R10        2.63676  -0.00082  -0.00007  -0.00145  -0.00152   2.63524
   R11        2.07896  -0.00006  -0.00015   0.00005  -0.00011   2.07886
   R12        2.07841   0.00015  -0.00010   0.00046   0.00037   2.07878
    A1        2.08667   0.00110   0.00162   0.00215   0.00377   2.09044
    A2        2.10411  -0.00041  -0.00206   0.00110  -0.00096   2.10315
    A3        2.09240  -0.00069   0.00044  -0.00324  -0.00281   2.08960
    A4        2.10320  -0.00258  -0.00182  -0.00566  -0.00748   2.09572
    A5        2.08982   0.00131   0.00089   0.00291   0.00381   2.09362
    A6        2.09017   0.00127   0.00093   0.00274   0.00367   2.09384
    A7        2.08675   0.00107   0.00159   0.00211   0.00370   2.09045
    A8        2.10441  -0.00043  -0.00206   0.00101  -0.00106   2.10335
    A9        2.09203  -0.00065   0.00047  -0.00311  -0.00264   2.08939
   A10        2.09756   0.00033  -0.00069   0.00154   0.00085   2.09840
   A11        2.08957  -0.00012   0.00095  -0.00126  -0.00031   2.08926
   A12        2.09606  -0.00021  -0.00026  -0.00028  -0.00054   2.09552
   A13        2.09465  -0.00027  -0.00004  -0.00166  -0.00170   2.09295
   A14        2.09441   0.00013   0.00004   0.00078   0.00082   2.09523
   A15        2.09413   0.00014  -0.00000   0.00088   0.00088   2.09501
   A16        2.09755   0.00034  -0.00067   0.00153   0.00086   2.09841
   A17        2.08996  -0.00015   0.00096  -0.00143  -0.00046   2.08950
   A18        2.09567  -0.00019  -0.00030  -0.00010  -0.00040   2.09527
    D1       -0.00027   0.00001   0.00018   0.00004   0.00022  -0.00005
    D2       -3.14130  -0.00001  -0.00023   0.00000  -0.00023  -3.14153
    D3        3.14124   0.00001   0.00017   0.00013   0.00030   3.14155
    D4        0.00022  -0.00001  -0.00024   0.00009  -0.00015   0.00007
    D5       -0.00003   0.00000   0.00006  -0.00004   0.00002  -0.00000
    D6       -3.14142  -0.00000  -0.00008  -0.00001  -0.00009  -3.14150
    D7       -3.14154  -0.00000   0.00006  -0.00012  -0.00006   3.14158
    D8        0.00025  -0.00001  -0.00007  -0.00010  -0.00017   0.00008
    D9        0.00040  -0.00001  -0.00029  -0.00002  -0.00031   0.00009
   D10       -3.14134  -0.00001  -0.00019   0.00000  -0.00019  -3.14153
   D11        3.14143   0.00001   0.00012   0.00002   0.00014   3.14157
   D12       -0.00031   0.00001   0.00022   0.00004   0.00026  -0.00005
   D13       -0.00024   0.00001   0.00018  -0.00002   0.00016  -0.00008
   D14        3.14146   0.00000   0.00004   0.00007   0.00011   3.14157
   D15        3.14150   0.00000   0.00008  -0.00004   0.00004   3.14154
   D16        0.00001  -0.00000  -0.00006   0.00005  -0.00001   0.00000
   D17       -0.00006   0.00000   0.00006   0.00002   0.00008   0.00002
   D18       -3.14135  -0.00001  -0.00005  -0.00015  -0.00020  -3.14155
   D19        3.14144   0.00001   0.00019  -0.00007   0.00013   3.14156
   D20        0.00014  -0.00000   0.00009  -0.00023  -0.00015  -0.00001
   D21        0.00019  -0.00001  -0.00018   0.00001  -0.00017   0.00002
   D22        3.14158  -0.00000  -0.00004  -0.00002  -0.00006   3.14152
   D23        3.14149   0.00000  -0.00007   0.00017   0.00010   3.14159
   D24       -0.00031   0.00001   0.00007   0.00015   0.00021  -0.00009
         Item               Value     Threshold  Converged?
 Maximum Force            0.004072     0.000450     NO 
 RMS     Force            0.000841     0.000300     NO 
 Maximum Displacement     0.020302     0.001800     NO 
 RMS     Displacement     0.003833     0.001200     NO 
 Predicted change in Energy=-6.005635D-05
 GradGradGradGradGradGradGradGradGradGradGradGradGradGradGradGradGradGrad

                          Input orientation:                          
 ---------------------------------------------------------------------
 Center     Atomic      Atomic             Coordinates (Angstroms)
 Number     Number       Type             X           Y           Z
 ---------------------------------------------------------------------
      1          6           0       -0.424500    4.819998    1.527355
      2          6           0        0.974191    4.820847    1.527876
      3          6           0        1.674345    6.031535    1.527248
      4          6           0        0.972981    7.237326    1.526213
      5          6           0       -0.421408    7.238415    1.525709
      6          6           0       -1.117856    6.030271    1.526270
      7          1           0       -0.982768    3.870991    1.527800
      8          1           0        2.775343    6.040603    1.527593
      9          1           0        1.524813    8.188939    1.525745
     10          1           0       -0.971501    8.191086    1.524851
     11          1           0       -2.217896    6.028571    1.525946
     12         35           0        1.910846    3.197885    1.529229
 ---------------------------------------------------------------------
                    Distance matrix (angstroms):
                    1          2          3          4          5
     1  C    0.000000
     2  C    1.398691   0.000000
     3  C    2.423421   1.398564   0.000000
     4  C    2.792208   2.416479   1.394935   0.000000
     5  C    2.418419   2.791476   2.418417   1.394390   0.000000
     6  C    1.394813   2.416479   2.792202   2.414246   1.394508
     7  H    1.101035   2.175296   3.424646   3.893220   3.413894
     8  H    3.424744   2.175306   1.101036   2.163483   3.413793
     9  H    3.892247   3.412804   2.162580   1.100039   2.165935
    10  H    3.415179   3.891559   3.415284   2.165796   1.100084
    11  H    2.162618   3.412919   3.892242   3.412153   2.165893
    12  Br   2.843430   1.873854   2.843503   4.146888   4.665330
                    6          7          8          9         10
     6  C    0.000000
     7  H    2.163502   0.000000
     8  H    3.893214   4.339426   0.000000
     9  H    3.412265   4.993260   2.485795   0.000000
    10  H    2.165766   4.320110   4.320119   2.496316   0.000000
    11  H    1.100041   2.486101   4.993254   4.321465   2.495991
    12  Br   4.146740   2.970871   2.971262   5.005961   5.765413
                   11         12
    11  H    0.000000
    12  Br   5.005926   0.000000
 Stoichiometry    C6H5Br
 Framework group  C1[X(C6H5Br)]
 Deg. of freedom    30
 Full point group                 C1      NOp   1
 Largest Abelian subgroup         C1      NOp   1
 Largest concise Abelian subgroup C1      NOp   1
                         Standard orientation:                         
 ---------------------------------------------------------------------
 Center     Atomic      Atomic             Coordinates (Angstroms)
 Number     Number       Type             X           Y           Z
 ---------------------------------------------------------------------
      1          6           0       -0.775408   -1.211693    0.000011
      2          6           0       -0.076930    0.000109    0.000053
      3          6           0       -0.775473    1.211728   -0.000002
      4          6           0       -2.170400    1.207071    0.000013
      5          6           0       -2.868406   -0.000037   -0.000012
      6          6           0       -2.170214   -1.207174   -0.000023
      7          1           0       -0.232572   -2.169612    0.000010
      8          1           0       -0.232931    2.169814   -0.000029
      9          1           0       -2.718709    2.160719   -0.000005
     10          1           0       -3.968489   -0.000217   -0.000041
     11          1           0       -2.718657   -2.160747    0.000029
     12         35           0        1.796924    0.000001   -0.000006
 ---------------------------------------------------------------------
 Rotational constants (GHZ):           5.6714765           0.9954126           0.8467906
 Standard basis: VSTO-6G (5D, 7F)
 There are    33 symmetry adapted cartesian basis functions of A   symmetry.
 There are    33 symmetry adapted basis functions of A   symmetry.
    33 basis functions,   198 primitive gaussians,    33 cartesian basis functions
    18 alpha electrons       18 beta electrons
       nuclear repulsion energy       157.6575312427 Hartrees.
 Integral buffers will be    131072 words long.
 Regular integral format.
 Two-electron integral symmetry is turned off.
 Do NDO integrals.
 One-electron integrals computed using PRISM.
 NBasis=    33 RedAO= F EigKep=  0.00D+00  NBF=    33
 NBsUse=    33 1.00D-04 EigRej=  0.00D+00 NBFU=    33
 Initial guess from the checkpoint file:  "geometry_chks/monobromobenzene.chk"
 B after Tr=    -0.000000    0.000000   -0.000000
         Rot=    1.000000   -0.000000    0.000000    0.000005 Ang=   0.00 deg.
 Keep J ints in memory in canonical form, NReq=862182.
 Overlap will be assumed to be unity.
 Requested convergence on RMS density matrix=1.00D-08 within 128 cycles.
 Requested convergence on MAX density matrix=1.00D-06.
 Requested convergence on             energy=1.00D-06.
 No special actions if energy rises.
 SCF Done:  E(RAM1) =  0.424955099160E-01 A.U. after   11 cycles
            NFock= 10  Conv=0.44D-08     -V/T= 1.0006
 Calling FoFJK, ICntrl=      2127 FMM=F ISym2X=0 I1Cent= 0 IOpClX= 0 NMat=1 NMatS=1 NMatT=0.
 ***** Axes restored to original set *****
 -------------------------------------------------------------------
 Center     Atomic                   Forces (Hartrees/Bohr)
 Number     Number              X              Y              Z
 -------------------------------------------------------------------
      1        6           0.000602175    0.000634932    0.000002138
      2        6          -0.000122751    0.000105588   -0.000012085
      3        6          -0.000846963   -0.000105732    0.000007089
      4        6           0.000363005   -0.000419505   -0.000005457
      5        6          -0.000142369    0.000155077   -0.000001141
      6        6           0.000179066   -0.000425059    0.000008445
      7        1           0.000052139    0.000053837    0.000000347
      8        1          -0.000072964   -0.000032735    0.000000468
      9        1           0.000088770    0.000002573    0.000000957
     10        1           0.000012978   -0.000006760    0.000000957
     11        1          -0.000045934   -0.000093129   -0.000003948
     12       35          -0.000067152    0.000130912    0.000002230
 -------------------------------------------------------------------
 Cartesian Forces:  Max     0.000846963 RMS     0.000243709

 GradGradGradGradGradGradGradGradGradGradGradGradGradGradGradGradGradGrad
 Berny optimization.
 Using GEDIIS/GDIIS optimizer.
 FormGI is forming the generalized inverse of G from B-inverse, IUseBI=4.
 Internal  Forces:  Max     0.000734102 RMS     0.000186436
 Search for a local minimum.
 Step number   3 out of a maximum of   64
 All quantities printed in internal units (Hartrees-Bohrs-Radians)
 Mixed Optimization -- En-DIIS/RFO-DIIS
 Swapping is turned off.
 Update second derivatives using D2CorX and points    1    2    3
 DE= -5.73D-05 DEPred=-6.01D-05 R= 9.54D-01
 TightC=F SS=  1.41D+00  RLast= 1.95D-02 DXNew= 5.0454D-01 5.8509D-02
 Trust test= 9.54D-01 RLast= 1.95D-02 DXMaxT set to 3.00D-01
 ITU=  1  1  0
     Eigenvalues ---    0.02152   0.02153   0.02154   0.02155   0.02155
     Eigenvalues ---    0.02155   0.02156   0.02156   0.02157   0.15716
     Eigenvalues ---    0.16000   0.16000   0.16000   0.16021   0.19555
     Eigenvalues ---    0.21967   0.22000   0.24128   0.25002   0.33682
     Eigenvalues ---    0.33709   0.33719   0.33722   0.33732   0.42114
     Eigenvalues ---    0.44137   0.46398   0.46457   0.46467   0.54744
 En-DIIS/RFO-DIIS/Sim-DIIS IScMMF=       -3 using points:     3    2
 RFO step:  Lambda=-4.71723817D-06.
 DidBck=F Rises=F RFO-DIIS coefs:    1.04088   -0.04088
 Iteration  1 RMS(Cart)=  0.00077330 RMS(Int)=  0.00000033
 Iteration  2 RMS(Cart)=  0.00000041 RMS(Int)=  0.00000008
 Variable       Old X    -DE/DX   Delta X   Delta X   Delta X     New X
                                 (Linear)    (Quad)   (Total)
    R1        2.64314  -0.00073   0.00012  -0.00158  -0.00146   2.64168
    R2        2.63582  -0.00043   0.00005  -0.00089  -0.00084   2.63497
    R3        2.08066  -0.00007  -0.00003  -0.00021  -0.00025   2.08041
    R4        2.64290  -0.00068   0.00013  -0.00147  -0.00135   2.64156
    R5        3.54107  -0.00015   0.00060  -0.00081  -0.00020   3.54087
    R6        2.63604  -0.00048   0.00004  -0.00100  -0.00095   2.63509
    R7        2.08066  -0.00007  -0.00003  -0.00021  -0.00024   2.08041
    R8        2.63502   0.00008  -0.00005   0.00024   0.00018   2.63520
    R9        2.07877   0.00005   0.00002   0.00014   0.00016   2.07893
   R10        2.63524   0.00003  -0.00006   0.00014   0.00008   2.63531
   R11        2.07886  -0.00001  -0.00000  -0.00004  -0.00004   2.07882
   R12        2.07878   0.00005   0.00002   0.00014   0.00015   2.07893
    A1        2.09044   0.00027   0.00015   0.00102   0.00118   2.09162
    A2        2.10315  -0.00016  -0.00004  -0.00060  -0.00064   2.10251
    A3        2.08960  -0.00012  -0.00011  -0.00042  -0.00054   2.08906
    A4        2.09572  -0.00012  -0.00031  -0.00090  -0.00121   2.09451
    A5        2.09362   0.00007   0.00016   0.00050   0.00066   2.09428
    A6        2.09384   0.00005   0.00015   0.00040   0.00055   2.09439
    A7        2.09045   0.00027   0.00015   0.00102   0.00118   2.09162
    A8        2.10335  -0.00017  -0.00004  -0.00069  -0.00074   2.10261
    A9        2.08939  -0.00010  -0.00011  -0.00033  -0.00044   2.08895
   A10        2.09840  -0.00007   0.00003  -0.00014  -0.00010   2.09830
   A11        2.08926  -0.00004  -0.00001  -0.00041  -0.00042   2.08884
   A12        2.09552   0.00012  -0.00002   0.00055   0.00053   2.09605
   A13        2.09295  -0.00027  -0.00007  -0.00086  -0.00093   2.09201
   A14        2.09523   0.00013   0.00003   0.00038   0.00042   2.09565
   A15        2.09501   0.00015   0.00004   0.00048   0.00052   2.09553
   A16        2.09841  -0.00008   0.00004  -0.00014  -0.00011   2.09831
   A17        2.08950  -0.00006  -0.00002  -0.00052  -0.00054   2.08896
   A18        2.09527   0.00013  -0.00002   0.00066   0.00065   2.09592
    D1       -0.00005   0.00000   0.00001   0.00008   0.00009   0.00004
    D2       -3.14153  -0.00000  -0.00001  -0.00010  -0.00011   3.14155
    D3        3.14155   0.00000   0.00001   0.00007   0.00009  -3.14155
    D4        0.00007  -0.00000  -0.00001  -0.00010  -0.00011  -0.00004
    D5       -0.00000   0.00000   0.00000   0.00002   0.00002   0.00002
    D6       -3.14150  -0.00000  -0.00000  -0.00009  -0.00010   3.14159
    D7        3.14158   0.00000  -0.00000   0.00002   0.00002  -3.14158
    D8        0.00008  -0.00000  -0.00001  -0.00009  -0.00009  -0.00001
    D9        0.00009  -0.00000  -0.00001  -0.00014  -0.00015  -0.00006
   D10       -3.14153  -0.00000  -0.00001  -0.00009  -0.00010   3.14156
   D11        3.14157   0.00000   0.00001   0.00004   0.00004  -3.14157
   D12       -0.00005   0.00000   0.00001   0.00009   0.00010   0.00005
   D13       -0.00008   0.00000   0.00001   0.00011   0.00012   0.00004
   D14        3.14157   0.00000   0.00000   0.00004   0.00004  -3.14158
   D15        3.14154   0.00000   0.00000   0.00006   0.00006  -3.14158
   D16        0.00000  -0.00000  -0.00000  -0.00002  -0.00002  -0.00002
   D17        0.00002  -0.00000   0.00000  -0.00001  -0.00001   0.00001
   D18       -3.14155  -0.00000  -0.00001  -0.00004  -0.00005   3.14158
   D19        3.14156   0.00000   0.00001   0.00006   0.00007  -3.14155
   D20       -0.00001   0.00000  -0.00001   0.00003   0.00002   0.00001
   D21        0.00002  -0.00000  -0.00001  -0.00005  -0.00006  -0.00004
   D22        3.14152   0.00000  -0.00000   0.00006   0.00006   3.14157
   D23        3.14159  -0.00000   0.00000  -0.00002  -0.00002   3.14157
   D24       -0.00009   0.00000   0.00001   0.00009   0.00010   0.00001
         Item               Value     Threshold  Converged?
 Maximum Force            0.000734     0.000450     NO 
 RMS     Force            0.000186     0.000300     YES
 Maximum Displacement     0.002325     0.001800     NO 
 RMS     Displacement     0.000773     0.001200     YES
 Predicted change in Energy=-2.358672D-06
 GradGradGradGradGradGradGradGradGradGradGradGradGradGradGradGradGradGrad

                          Input orientation:                          
 ---------------------------------------------------------------------
 Center     Atomic      Atomic             Coordinates (Angstroms)
 Number     Number       Type             X           Y           Z
 ---------------------------------------------------------------------
      1          6           0       -0.423745    4.820831    1.527344
      2          6           0        0.974171    4.820827    1.527794
      3          6           0        1.673243    6.031318    1.527250
      4          6           0        0.972827    7.237077    1.526182
      5          6           0       -0.421659    7.238823    1.525701
      6          6           0       -1.117568    6.030321    1.526308
      7          1           0       -0.981918    3.871918    1.527804
      8          1           0        2.774113    6.040233    1.527632
      9          1           0        1.525652    8.188210    1.525743
     10          1           0       -0.971689    8.191506    1.524868
     11          1           0       -2.217686    6.027399    1.525949
     12         35           0        1.910851    3.198004    1.529260
 ---------------------------------------------------------------------
                    Distance matrix (angstroms):
                    1          2          3          4          5
     1  C    0.000000
     2  C    1.397916   0.000000
     3  C    2.421289   1.397852   0.000000
     4  C    2.790817   2.416251   1.394431   0.000000
     5  C    2.417993   2.791962   2.417992   1.394487   0.000000
     6  C    1.394366   2.416247   2.790812   2.413713   1.394549
     7  H    1.100905   2.174100   3.422410   3.891699   3.413201
     8  H    3.422462   2.174108   1.100906   2.162653   3.413149
     9  H    3.890937   3.412243   2.161936   1.100123   2.166416
    10  H    3.414923   3.892025   3.414979   2.166121   1.100063
    11  H    2.161951   3.412297   3.890931   3.412139   2.166394
    12  Br   2.843222   1.873747   2.843261   4.146566   4.665709
                    6          7          8          9         10
     6  C    0.000000
     7  H    2.162662   0.000000
     8  H    3.891694   4.336976   0.000000
     9  H    3.412198   4.991822   2.484444   0.000000
    10  H    2.166103   4.319601   4.319608   2.497343   0.000000
    11  H    1.100122   2.484597   4.991816   4.322231   2.497173
    12  Br   4.146487   2.970232   2.970437   5.005052   5.765772
                   11         12
    11  H    0.000000
    12  Br   5.005028   0.000000
 Stoichiometry    C6H5Br
 Framework group  C1[X(C6H5Br)]
 Deg. of freedom    30
 Full point group                 C1      NOp   1
 Largest Abelian subgroup         C1      NOp   1
 Largest concise Abelian subgroup C1      NOp   1
                         Standard orientation:                         
 ---------------------------------------------------------------------
 Center     Atomic      Atomic             Coordinates (Angstroms)
 Number     Number       Type             X           Y           Z
 ---------------------------------------------------------------------
      1          6           0       -0.775670   -1.210636   -0.000009
      2          6           0       -0.076816    0.000056   -0.000036
      3          6           0       -0.775705    1.210653    0.000006
      4          6           0       -2.170130    1.206830   -0.000001
      5          6           0       -2.868778   -0.000020   -0.000005
      6          6           0       -2.170031   -1.206883    0.000016
      7          1           0       -0.232888   -2.168435   -0.000004
      8          1           0       -0.233076    2.168541    0.000017
      9          1           0       -2.717509    2.161108    0.000019
     10          1           0       -3.968841   -0.000116   -0.000001
     11          1           0       -2.717474   -2.161123    0.000031
     12         35           0        1.796931    0.000001    0.000003
 ---------------------------------------------------------------------
 Rotational constants (GHZ):           5.6768778           0.9954058           0.8469060
 Standard basis: VSTO-6G (5D, 7F)
 There are    33 symmetry adapted cartesian basis functions of A   symmetry.
 There are    33 symmetry adapted basis functions of A   symmetry.
    33 basis functions,   198 primitive gaussians,    33 cartesian basis functions
    18 alpha electrons       18 beta electrons
       nuclear repulsion energy       157.6751116072 Hartrees.
 Integral buffers will be    131072 words long.
 Regular integral format.
 Two-electron integral symmetry is turned off.
 Do NDO integrals.
 One-electron integrals computed using PRISM.
 NBasis=    33 RedAO= F EigKep=  0.00D+00  NBF=    33
 NBsUse=    33 1.00D-04 EigRej=  0.00D+00 NBFU=    33
 Initial guess from the checkpoint file:  "geometry_chks/monobromobenzene.chk"
 B after Tr=     0.000000    0.000000    0.000000
         Rot=    1.000000   -0.000000   -0.000000    0.000004 Ang=   0.00 deg.
 Keep J ints in memory in canonical form, NReq=862182.
 Overlap will be assumed to be unity.
 Requested convergence on RMS density matrix=1.00D-08 within 128 cycles.
 Requested convergence on MAX density matrix=1.00D-06.
 Requested convergence on             energy=1.00D-06.
 No special actions if energy rises.
 SCF Done:  E(RAM1) =  0.424937436056E-01 A.U. after   10 cycles
            NFock=  9  Conv=0.63D-08     -V/T= 1.0006
 Calling FoFJK, ICntrl=      2127 FMM=F ISym2X=0 I1Cent= 0 IOpClX= 0 NMat=1 NMatS=1 NMatT=0.
 ***** Axes restored to original set *****
 -------------------------------------------------------------------
 Center     Atomic                   Forces (Hartrees/Bohr)
 Number     Number              X              Y              Z
 -------------------------------------------------------------------
      1        6          -0.000128467   -0.000088127   -0.000000939
      2        6           0.000168087   -0.000343412    0.000007915
      3        6           0.000141632    0.000118837   -0.000005218
      4        6           0.000062742    0.000136706    0.000001713
      5        6          -0.000107709    0.000138603    0.000002172
      6        6          -0.000151617    0.000066783   -0.000003594
      7        1          -0.000072534   -0.000091174   -0.000000199
      8        1           0.000114542    0.000009571    0.000000386
      9        1           0.000004909    0.000000873   -0.000000688
     10        1           0.000021103   -0.000028017   -0.000000274
     11        1          -0.000004058   -0.000012494    0.000000488
     12       35          -0.000048630    0.000091851   -0.000001763
 -------------------------------------------------------------------
 Cartesian Forces:  Max     0.000343412 RMS     0.000094964

 GradGradGradGradGradGradGradGradGradGradGradGradGradGradGradGradGradGrad
 Berny optimization.
 Using GEDIIS/GDIIS optimizer.
 FormGI is forming the generalized inverse of G from B-inverse, IUseBI=4.
 Internal  Forces:  Max     0.000301246 RMS     0.000077092
 Search for a local minimum.
 Step number   4 out of a maximum of   64
 All quantities printed in internal units (Hartrees-Bohrs-Radians)
 Mixed Optimization -- En-DIIS/RFO-DIIS
 Swapping is turned off.
 Update second derivatives using D2CorX and points    1    2    3    4
 DE= -1.77D-06 DEPred=-2.36D-06 R= 7.49D-01
 TightC=F SS=  1.41D+00  RLast= 3.86D-03 DXNew= 5.0454D-01 1.1572D-02
 Trust test= 7.49D-01 RLast= 3.86D-03 DXMaxT set to 3.00D-01
 ITU=  1  1  1  0
     Eigenvalues ---    0.02152   0.02153   0.02154   0.02155   0.02155
     Eigenvalues ---    0.02155   0.02156   0.02157   0.02157   0.14844
     Eigenvalues ---    0.15959   0.16000   0.16000   0.16011   0.17814
     Eigenvalues ---    0.21976   0.22000   0.24867   0.25155   0.33654
     Eigenvalues ---    0.33707   0.33721   0.33722   0.34644   0.42108
     Eigenvalues ---    0.44425   0.46324   0.46467   0.46550   0.71307
 En-DIIS/RFO-DIIS/Sim-DIIS IScMMF=       -3 using points:     4    3    2
 RFO step:  Lambda=-5.35003867D-07.
 DidBck=F Rises=F RFO-DIIS coefs:    0.93670    0.05581    0.00750
 Iteration  1 RMS(Cart)=  0.00017379 RMS(Int)=  0.00000001
 Iteration  2 RMS(Cart)=  0.00000001 RMS(Int)=  0.00000001
 Variable       Old X    -DE/DX   Delta X   Delta X   Delta X     New X
                                 (Linear)    (Quad)   (Total)
    R1        2.64168   0.00028   0.00007   0.00032   0.00039   2.64207
    R2        2.63497   0.00019   0.00005   0.00022   0.00026   2.63523
    R3        2.08041   0.00012   0.00002   0.00024   0.00026   2.08067
    R4        2.64156   0.00030   0.00006   0.00038   0.00044   2.64200
    R5        3.54087  -0.00010  -0.00010  -0.00045  -0.00055   3.54032
    R6        2.63509   0.00016   0.00005   0.00016   0.00021   2.63530
    R7        2.08041   0.00011   0.00002   0.00024   0.00026   2.08067
    R8        2.63520   0.00017  -0.00000   0.00029   0.00029   2.63549
    R9        2.07893   0.00000  -0.00001   0.00003   0.00002   2.07895
   R10        2.63531   0.00014   0.00001   0.00023   0.00024   2.63556
   R11        2.07882  -0.00003   0.00000  -0.00009  -0.00009   2.07873
   R12        2.07893   0.00000  -0.00001   0.00003   0.00002   2.07895
    A1        2.09162  -0.00002  -0.00010   0.00013   0.00003   2.09165
    A2        2.10251   0.00003   0.00005   0.00003   0.00007   2.10258
    A3        2.08906  -0.00001   0.00006  -0.00016  -0.00011   2.08895
    A4        2.09451  -0.00002   0.00013  -0.00025  -0.00011   2.09440
    A5        2.09428   0.00002  -0.00007   0.00015   0.00008   2.09436
    A6        2.09439   0.00000  -0.00006   0.00009   0.00003   2.09442
    A7        2.09162  -0.00002  -0.00010   0.00013   0.00003   2.09165
    A8        2.10261   0.00002   0.00005  -0.00003   0.00003   2.10264
    A9        2.08895   0.00000   0.00005  -0.00010  -0.00006   2.08889
   A10        2.09830   0.00002   0.00000   0.00004   0.00004   2.09834
   A11        2.08884  -0.00001   0.00003  -0.00011  -0.00008   2.08876
   A12        2.09605  -0.00001  -0.00003   0.00007   0.00004   2.09609
   A13        2.09201   0.00003   0.00007  -0.00009  -0.00002   2.09199
   A14        2.09565  -0.00002  -0.00003   0.00002  -0.00002   2.09563
   A15        2.09553  -0.00001  -0.00004   0.00008   0.00004   2.09556
   A16        2.09831   0.00002   0.00000   0.00003   0.00003   2.09834
   A17        2.08896  -0.00002   0.00004  -0.00017  -0.00013   2.08883
   A18        2.09592   0.00000  -0.00004   0.00013   0.00010   2.09602
    D1        0.00004  -0.00000  -0.00001  -0.00003  -0.00004  -0.00000
    D2        3.14155   0.00000   0.00001   0.00004   0.00005  -3.14159
    D3       -3.14155  -0.00000  -0.00001  -0.00004  -0.00005   3.14158
    D4       -0.00004   0.00000   0.00001   0.00003   0.00004   0.00000
    D5        0.00002  -0.00000  -0.00000  -0.00001  -0.00002   0.00000
    D6        3.14159   0.00000   0.00001  -0.00000   0.00001   3.14159
    D7       -3.14158  -0.00000  -0.00000  -0.00001  -0.00001  -3.14159
    D8       -0.00001   0.00000   0.00001   0.00001   0.00001   0.00000
    D9       -0.00006   0.00000   0.00001   0.00006   0.00007   0.00000
   D10        3.14156   0.00000   0.00001   0.00003   0.00004  -3.14159
   D11       -3.14157  -0.00000  -0.00000  -0.00002  -0.00002   3.14159
   D12        0.00005  -0.00000  -0.00001  -0.00005  -0.00005  -0.00001
   D13        0.00004  -0.00000  -0.00001  -0.00003  -0.00004   0.00000
   D14       -3.14158  -0.00000  -0.00000  -0.00001  -0.00002   3.14159
   D15       -3.14158  -0.00000  -0.00000  -0.00000  -0.00001  -3.14159
   D16       -0.00002   0.00000   0.00000   0.00001   0.00001  -0.00000
   D17        0.00001  -0.00000   0.00000  -0.00002  -0.00002  -0.00000
   D18        3.14158   0.00000   0.00000   0.00001   0.00002  -3.14159
   D19       -3.14155  -0.00000  -0.00001  -0.00003  -0.00004   3.14159
   D20        0.00001  -0.00000  -0.00000  -0.00001  -0.00001   0.00001
   D21       -0.00004   0.00000   0.00000   0.00004   0.00004   0.00000
   D22        3.14157   0.00000  -0.00000   0.00003   0.00002  -3.14159
   D23        3.14157   0.00000   0.00000   0.00001   0.00001   3.14159
   D24        0.00001  -0.00000  -0.00001  -0.00000  -0.00001  -0.00001
         Item               Value     Threshold  Converged?
 Maximum Force            0.000301     0.000450     YES
 RMS     Force            0.000077     0.000300     YES
 Maximum Displacement     0.000556     0.001800     YES
 RMS     Displacement     0.000174     0.001200     YES
 Predicted change in Energy=-2.674999D-07
 Optimization completed.
    -- Stationary point found.
                           ----------------------------
                           !   Optimized Parameters   !
                           ! (Angstroms and Degrees)  !
 --------------------------                            --------------------------
 ! Name  Definition              Value          Derivative Info.                !
 --------------------------------------------------------------------------------
 ! R1    R(1,2)                  1.3979         -DE/DX =    0.0003              !
 ! R2    R(1,6)                  1.3944         -DE/DX =    0.0002              !
 ! R3    R(1,7)                  1.1009         -DE/DX =    0.0001              !
 ! R4    R(2,3)                  1.3979         -DE/DX =    0.0003              !
 ! R5    R(2,12)                 1.8737         -DE/DX =   -0.0001              !
 ! R6    R(3,4)                  1.3944         -DE/DX =    0.0002              !
 ! R7    R(3,8)                  1.1009         -DE/DX =    0.0001              !
 ! R8    R(4,5)                  1.3945         -DE/DX =    0.0002              !
 ! R9    R(4,9)                  1.1001         -DE/DX =    0.0                 !
 ! R10   R(5,6)                  1.3945         -DE/DX =    0.0001              !
 ! R11   R(5,10)                 1.1001         -DE/DX =    0.0                 !
 ! R12   R(6,11)                 1.1001         -DE/DX =    0.0                 !
 ! A1    A(2,1,6)              119.8409         -DE/DX =    0.0                 !
 ! A2    A(2,1,7)              120.4649         -DE/DX =    0.0                 !
 ! A3    A(6,1,7)              119.6943         -DE/DX =    0.0                 !
 ! A4    A(1,2,3)              120.0067         -DE/DX =    0.0                 !
 ! A5    A(1,2,12)             119.9934         -DE/DX =    0.0                 !
 ! A6    A(3,2,12)             119.9999         -DE/DX =    0.0                 !
 ! A7    A(2,3,4)              119.8411         -DE/DX =    0.0                 !
 ! A8    A(2,3,8)              120.4709         -DE/DX =    0.0                 !
 ! A9    A(4,3,8)              119.688          -DE/DX =    0.0                 !
 ! A10   A(3,4,5)              120.2237         -DE/DX =    0.0                 !
 ! A11   A(3,4,9)              119.6817         -DE/DX =    0.0                 !
 ! A12   A(5,4,9)              120.0946         -DE/DX =    0.0                 !
 ! A13   A(4,5,6)              119.8635         -DE/DX =    0.0                 !
 ! A14   A(4,5,10)             120.0717         -DE/DX =    0.0                 !
 ! A15   A(6,5,10)             120.0649         -DE/DX =    0.0                 !
 ! A16   A(1,6,5)              120.2241         -DE/DX =    0.0                 !
 ! A17   A(1,6,11)             119.6885         -DE/DX =    0.0                 !
 ! A18   A(5,6,11)             120.0874         -DE/DX =    0.0                 !
 ! D1    D(6,1,2,3)              0.0021         -DE/DX =    0.0                 !
 ! D2    D(6,1,2,12)          -180.0026         -DE/DX =    0.0                 !
 ! D3    D(7,1,2,3)            180.0023         -DE/DX =    0.0                 !
 ! D4    D(7,1,2,12)            -0.0024         -DE/DX =    0.0                 !
 ! D5    D(2,1,6,5)              0.0009         -DE/DX =    0.0                 !
 ! D6    D(2,1,6,11)           179.9996         -DE/DX =    0.0                 !
 ! D7    D(7,1,6,5)           -179.9993         -DE/DX =    0.0                 !
 ! D8    D(7,1,6,11)            -0.0006         -DE/DX =    0.0                 !
 ! D9    D(1,2,3,4)             -0.0036         -DE/DX =    0.0                 !
 ! D10   D(1,2,3,8)           -180.0019         -DE/DX =    0.0                 !
 ! D11   D(12,2,3,4)           180.0011         -DE/DX =    0.0                 !
 ! D12   D(12,2,3,8)             0.0027         -DE/DX =    0.0                 !
 ! D13   D(2,3,4,5)              0.0022         -DE/DX =    0.0                 !
 ! D14   D(2,3,4,9)            180.0008         -DE/DX =    0.0                 !
 ! D15   D(8,3,4,5)           -179.9995         -DE/DX =    0.0                 !
 ! D16   D(8,3,4,9)             -0.0009         -DE/DX =    0.0                 !
 ! D17   D(3,4,5,6)              0.0008         -DE/DX =    0.0                 !
 ! D18   D(3,4,5,10)          -180.0005         -DE/DX =    0.0                 !
 ! D19   D(9,4,5,6)            180.0022         -DE/DX =    0.0                 !
 ! D20   D(9,4,5,10)             0.0009         -DE/DX =    0.0                 !
 ! D21   D(4,5,6,1)             -0.0024         -DE/DX =    0.0                 !
 ! D22   D(4,5,6,11)          -180.001          -DE/DX =    0.0                 !
 ! D23   D(10,5,6,1)           179.999          -DE/DX =    0.0                 !
 ! D24   D(10,5,6,11)            0.0003         -DE/DX =    0.0                 !
 --------------------------------------------------------------------------------
 GradGradGradGradGradGradGradGradGradGradGradGradGradGradGradGradGradGrad

                          Input orientation:                          
 ---------------------------------------------------------------------
 Center     Atomic      Atomic             Coordinates (Angstroms)
 Number     Number       Type             X           Y           Z
 ---------------------------------------------------------------------
      1          6           0       -0.423745    4.820831    1.527344
      2          6           0        0.974171    4.820827    1.527794
      3          6           0        1.673243    6.031318    1.527250
      4          6           0        0.972827    7.237077    1.526182
      5          6           0       -0.421659    7.238823    1.525701
      6          6           0       -1.117568    6.030321    1.526308
      7          1           0       -0.981918    3.871918    1.527804
      8          1           0        2.774113    6.040233    1.527632
      9          1           0        1.525652    8.188210    1.525743
     10          1           0       -0.971689    8.191506    1.524868
     11          1           0       -2.217686    6.027399    1.525949
     12         35           0        1.910851    3.198004    1.529260
 ---------------------------------------------------------------------
                    Distance matrix (angstroms):
                    1          2          3          4          5
     1  C    0.000000
     2  C    1.397916   0.000000
     3  C    2.421289   1.397852   0.000000
     4  C    2.790817   2.416251   1.394431   0.000000
     5  C    2.417993   2.791962   2.417992   1.394487   0.000000
     6  C    1.394366   2.416247   2.790812   2.413713   1.394549
     7  H    1.100905   2.174100   3.422410   3.891699   3.413201
     8  H    3.422462   2.174108   1.100906   2.162653   3.413149
     9  H    3.890937   3.412243   2.161936   1.100123   2.166416
    10  H    3.414923   3.892025   3.414979   2.166121   1.100063
    11  H    2.161951   3.412297   3.890931   3.412139   2.166394
    12  Br   2.843222   1.873747   2.843261   4.146566   4.665709
                    6          7          8          9         10
     6  C    0.000000
     7  H    2.162662   0.000000
     8  H    3.891694   4.336976   0.000000
     9  H    3.412198   4.991822   2.484444   0.000000
    10  H    2.166103   4.319601   4.319608   2.497343   0.000000
    11  H    1.100122   2.484597   4.991816   4.322231   2.497173
    12  Br   4.146487   2.970232   2.970437   5.005052   5.765772
                   11         12
    11  H    0.000000
    12  Br   5.005028   0.000000
 Stoichiometry    C6H5Br
 Framework group  C1[X(C6H5Br)]
 Deg. of freedom    30
 Full point group                 C1      NOp   1
 Largest Abelian subgroup         C1      NOp   1
 Largest concise Abelian subgroup C1      NOp   1
                         Standard orientation:                         
 ---------------------------------------------------------------------
 Center     Atomic      Atomic             Coordinates (Angstroms)
 Number     Number       Type             X           Y           Z
 ---------------------------------------------------------------------
      1          6           0       -0.775670   -1.210636   -0.000009
      2          6           0       -0.076816    0.000056   -0.000036
      3          6           0       -0.775705    1.210653    0.000006
      4          6           0       -2.170130    1.206830   -0.000001
      5          6           0       -2.868778   -0.000020   -0.000005
      6          6           0       -2.170031   -1.206883    0.000016
      7          1           0       -0.232888   -2.168435   -0.000004
      8          1           0       -0.233076    2.168541    0.000017
      9          1           0       -2.717509    2.161108    0.000019
     10          1           0       -3.968841   -0.000116   -0.000001
     11          1           0       -2.717474   -2.161123    0.000031
     12         35           0        1.796931    0.000001    0.000003
 ---------------------------------------------------------------------
 Rotational constants (GHZ):           5.6768778           0.9954058           0.8469060

 **********************************************************************

            Population analysis using the SCF Density.

 **********************************************************************

 Orbital symmetries:
       Occupied  (A) (A) (A) (A) (A) (A) (A) (A) (A) (A) (A) (A)
                 (A) (A) (A) (A) (A) (A)
       Virtual   (A) (A) (A) (A) (A) (A) (A) (A) (A) (A) (A) (A)
                 (A) (A) (A)
 The electronic state is 1-A.
 Alpha  occ. eigenvalues --   -1.45292  -1.22219  -1.16720  -1.10070  -0.86481
 Alpha  occ. eigenvalues --   -0.84689  -0.66265  -0.59851  -0.58893  -0.53235
 Alpha  occ. eigenvalues --   -0.53083  -0.51842  -0.45301  -0.44885  -0.43380
 Alpha  occ. eigenvalues --   -0.41001  -0.36664  -0.35288
 Alpha virt. eigenvalues --    0.00220   0.00911   0.02855   0.09468   0.13584
 Alpha virt. eigenvalues --    0.13667   0.14187   0.15270   0.15615   0.16867
 Alpha virt. eigenvalues --    0.17631   0.18777   0.19066   0.19741   0.21013
          Condensed to atoms (all electrons):
               1          2          3          4          5          6
     1  C    4.103529   0.000000   0.000000   0.000000   0.000000   0.000000
     2  C    0.000000   4.166581   0.000000   0.000000   0.000000   0.000000
     3  C    0.000000   0.000000   4.103525   0.000000   0.000000   0.000000
     4  C    0.000000   0.000000   0.000000   4.130177   0.000000   0.000000
     5  C    0.000000   0.000000   0.000000   0.000000   4.117220   0.000000
     6  C    0.000000   0.000000   0.000000   0.000000   0.000000   4.130177
     7  H    0.000000   0.000000   0.000000   0.000000   0.000000   0.000000
     8  H    0.000000   0.000000   0.000000   0.000000   0.000000   0.000000
     9  H    0.000000   0.000000   0.000000   0.000000   0.000000   0.000000
    10  H    0.000000   0.000000   0.000000   0.000000   0.000000   0.000000
    11  H    0.000000   0.000000   0.000000   0.000000   0.000000   0.000000
    12  Br   0.000000   0.000000   0.000000   0.000000   0.000000   0.000000
               7          8          9         10         11         12
     1  C    0.000000   0.000000   0.000000   0.000000   0.000000   0.000000
     2  C    0.000000   0.000000   0.000000   0.000000   0.000000   0.000000
     3  C    0.000000   0.000000   0.000000   0.000000   0.000000   0.000000
     4  C    0.000000   0.000000   0.000000   0.000000   0.000000   0.000000
     5  C    0.000000   0.000000   0.000000   0.000000   0.000000   0.000000
     6  C    0.000000   0.000000   0.000000   0.000000   0.000000   0.000000
     7  H    0.854034   0.000000   0.000000   0.000000   0.000000   0.000000
     8  H    0.000000   0.854036   0.000000   0.000000   0.000000   0.000000
     9  H    0.000000   0.000000   0.862723   0.000000   0.000000   0.000000
    10  H    0.000000   0.000000   0.000000   0.864397   0.000000   0.000000
    11  H    0.000000   0.000000   0.000000   0.000000   0.862723   0.000000
    12  Br   0.000000   0.000000   0.000000   0.000000   0.000000   6.950877
 Mulliken charges:
               1
     1  C   -0.103529
     2  C   -0.166581
     3  C   -0.103525
     4  C   -0.130177
     5  C   -0.117220
     6  C   -0.130177
     7  H    0.145966
     8  H    0.145964
     9  H    0.137277
    10  H    0.135603
    11  H    0.137277
    12  Br   0.049123
 Sum of Mulliken charges =  -0.00000
 Mulliken charges with hydrogens summed into heavy atoms:
               1
     1  C    0.042436
     2  C   -0.166581
     3  C    0.042439
     4  C    0.007100
     5  C    0.018383
     6  C    0.007100
    12  Br   0.049123
 Charge=             -0.0000 electrons
 Dipole moment (field-independent basis, Debye):
    X=             -1.4502    Y=              0.0000    Z=              0.0001  Tot=              1.4502
 N-N= 1.576751116072D+02 E-N=-2.214614001846D+02  KE=-6.870068768534D+01
 1\1\GINC-SH02-01N21\FOpt\RAM1\ZDO\C6H5Br1\JLAPIER\08-Dec-2025\0\\# opt
  am1 geom=connectivity\\Bromobenzene\\0,1\C,-0.4237454479,4.8208309354
 ,1.5273435968\C,0.9741707648,4.8208269965,1.5277942004\C,1.6732430577,
 6.031318013,1.5272503591\C,0.9728268713,7.2370766817,1.5261821766\C,-0
 .4216594132,7.2388228681,1.5257012551\C,-1.1175682925,6.0303211925,1.5
 263078981\H,-0.9819182612,3.871918045,1.5278043159\H,2.7741133342,6.04
 02334198,1.5276317384\H,1.5256518287,8.188209767,1.5257430566\H,-0.971
 6890606,8.1915059899,1.5248675045\H,-2.2176862221,6.0273985656,1.52594
 87064\Br,1.9108511909,3.1980037156,1.5292596624\\Version=ES64L-G16RevB
 .01\State=1-A\HF=0.0424937\RMSD=6.282e-09\RMSF=9.496e-05\Dipole=-0.285
 2154,0.4941374,-0.0004141\PG=C01 [X(C6H5Br1)]\\@


 THE SCIENTIFIC THEORIST IS NOT TO BE ENVIED. FOR NATURE, OR MORE
 PRECISELY EXPERIMENT, IS AN INEXORABLE AND NOT VERY FRIENDLY JUDGE OF HIS
 WORK.  IT NEVER SAYS "YES" TO A THEORY. IN THE MOST FAVORABLE CASES
 IT SAYS "MAYBE", AND IN THE GREAT MAJORITY OF CASES SIMPLY "NO"...
 PROBABLY EVERY THEORY WILL SOME DAY EXPERIENCE ITS "NO" - MOST
 THEORIES, SOON AFTER CONCEPTION.  -- A.EINSTEIN, NOV 11, 1922.
 Job cpu time:       0 days  0 hours  0 minutes 14.8 seconds.
 Elapsed time:       0 days  0 hours  0 minutes  5.5 seconds.
 File lengths (MBytes):  RWF=     10 Int=      0 D2E=      0 Chk=      2 Scr=      1
 Normal termination of Gaussian 16 at Mon Dec  8 11:12:09 2025.
