4-Chloro-Benzene (1234)                                                 
Freq      RM062X                                                      6-311++G(d,p)       
Number of atoms                            I               12
Info1-9                                    I   N=           9
           8           6        1002           0           0         100
           6          18       -5502
Full Title                                 C   N=           2
4-Chloro-Benzene (1234) 
Route                                      C   N=           5
# opt freq 6-311++g(d,p) guess=read geom=allcheck m062x     
Charge                                     I                0
Multiplicity                               I                1
Number of electrons                        I              106
Number of alpha electrons                  I               53
Number of beta electrons                   I               53
Number of basis functions                  I              266
Number of independent functions            I              264
Number of point charges in /Mol/           I                0
Number of translation vectors              I                0
Atomic numbers                             I   N=          12
           6           6           6           6           6           6
          17          17          17          17           1           1
Nuclear charges                            R   N=          12
  6.00000000E+00  6.00000000E+00  6.00000000E+00  6.00000000E+00  6.00000000E+00
  6.00000000E+00  1.70000000E+01  1.70000000E+01  1.70000000E+01  1.70000000E+01
  1.00000000E+00  1.00000000E+00
Current cartesian coordinates              R   N=          36
 -7.55301969E-01 -1.32450517E+00  0.00000000E+00 -7.55301969E-01  1.32450516E+00
 -1.47911420E-31  1.54094339E+00  2.62269549E+00 -4.93038066E-32  3.81089832E+00
  1.30736990E+00  4.93038066E-32  3.81089843E+00 -1.30736996E+00  2.46519033E-31
  1.54094337E+00 -2.62269560E+00  2.46519033E-31  1.61976118E+00 -5.89154314E+00
  3.94430453E-31 -3.56967974E+00 -2.95961572E+00  1.97215226E-31 -3.56967961E+00
  2.95961588E+00 -1.47911420E-31  1.61976104E+00  5.89154305E+00 -4.93038066E-31
  5.56937666E+00  2.34995115E+00 -4.93038066E-32  5.56937706E+00 -2.34995121E+00
  3.94430453E-31
Number of symbols in /Mol/                 I                0
Force Field                                I                0
Atom Types                                 C   N=          12
                                                            
                                                            
                        
Int Atom Types                             I   N=          12
           0           0           0           0           0           0
           0           0           0           0           0           0
MM charges                                 R   N=          12
  0.00000000E+00  0.00000000E+00  0.00000000E+00  0.00000000E+00  0.00000000E+00
  0.00000000E+00  0.00000000E+00  0.00000000E+00  0.00000000E+00  0.00000000E+00
  0.00000000E+00  0.00000000E+00
Integer atomic weights                     I   N=          12
          12          12          12          12          12          12
          35          35          35          35           1           1
Real atomic weights                        R   N=          12
  1.20000000E+01  1.20000000E+01  1.20000000E+01  1.20000000E+01  1.20000000E+01
  1.20000000E+01  3.49688527E+01  3.49688527E+01  3.49688527E+01  3.49688527E+01
  1.00782504E+00  1.00782504E+00
Atom fragment info                         I   N=          12
           0           0           0           0           0           0
           0           0           0           0           0           0
Atom residue num                           I   N=          12
           0           0           0           0           0           0
           0           0           0           0           0           0
Nuclear spins                              I   N=          12
           0           0           0           0           0           0
           3           3           3           3           1           1
Nuclear ZEff                               R   N=          12
 -3.60000000E+00 -3.60000000E+00 -3.60000000E+00 -3.60000000E+00 -3.60000000E+00
 -3.60000000E+00 -1.42400000E+01 -1.42400000E+01 -1.42400000E+01 -1.42400000E+01
 -1.00000000E+00 -1.00000000E+00
Nuclear ZNuc                               R   N=          12
  6.00000000E+00  6.00000000E+00  6.00000000E+00  6.00000000E+00  6.00000000E+00
  6.00000000E+00  1.70000000E+01  1.70000000E+01  1.70000000E+01  1.70000000E+01
  1.00000000E+00  1.00000000E+00
Nuclear QMom                               R   N=          12
  0.00000000E+00  0.00000000E+00  0.00000000E+00  0.00000000E+00  0.00000000E+00
  0.00000000E+00 -8.16500000E+00 -8.16500000E+00 -8.16500000E+00 -8.16500000E+00
  0.00000000E+00  0.00000000E+00
Nuclear GFac                               R   N=          12
  0.00000000E+00  0.00000000E+00  0.00000000E+00  0.00000000E+00  0.00000000E+00
  0.00000000E+00  8.21874000E-01  8.21874000E-01  8.21874000E-01  8.21874000E-01
  2.79284600E+00  2.79284600E+00
MicOpt                                     I   N=          12
          -1          -1          -1          -1          -1          -1
          -1          -1          -1          -1          -1          -1
Number of residues                         I                0
Number of secondary structures             I                0
Redundant internal dimensions              I   N=           4
          54          12          18          24
Redundant internal coordinate indices      I   N=         216
           1           2           0           0           1           6
           0           0           1           8           0           0
           2           3           0           0           2           9
           0           0           3           4           0           0
           3          10           0           0           4           5
           0           0           4          11           0           0
           5           6           0           0           5          12
           0           0           6           7           0           0
           2           1           6           0           2           1
           8           0           6           1           8           0
           1           2           3           0           1           2
           9           0           3           2           9           0
           2           3           4           0           2           3
          10           0           4           3          10           0
           3           4           5           0           3           4
          11           0           5           4          11           0
           4           5           6           0           4           5
          12           0           6           5          12           0
           1           6           5           0           1           6
           7           0           5           6           7           0
           6           1           2           3           6           1
           2           9           8           1           2           3
           8           1           2           9           2           1
           6           5           2           1           6           7
           8           1           6           5           8           1
           6           7           1           2           3           4
           1           2           3          10           9           2
           3           4           9           2           3          10
           2           3           4           5           2           3
           4          11          10           3           4           5
          10           3           4          11           3           4
           5           6           3           4           5          12
          11           4           5           6          11           4
           5          12           4           5           6           1
           4           5           6           7          12           5
           6           1          12           5           6           7
Redundant internal coordinates             R   N=          54
  2.64901033E+00  2.63780990E+00  3.25488997E+00  2.63780986E+00  3.25488995E+00
  2.62350468E+00  3.26979764E+00  2.61473986E+00  2.04431450E+00  2.62350482E+00
  2.04431473E+00  3.26979762E+00  2.08535082E+00  2.09711667E+00  2.10071782E+00
  2.08535078E+00  2.09711674E+00  2.10071779E+00  2.10186599E+00  2.10945787E+00
  2.07186145E+00  2.09596858E+00  2.08124654E+00  2.10597019E+00  2.09596848E+00
  2.10597021E+00  2.08124662E+00  2.10186596E+00  2.10945795E+00  2.07186140E+00
 -0.00000000E+00  3.14159265E+00  3.14159265E+00  0.00000000E+00 -0.00000000E+00
  3.14159265E+00  3.14159265E+00  0.00000000E+00 -0.00000000E+00  3.14159265E+00
  3.14159265E+00 -0.00000000E+00  0.00000000E+00  3.14159265E+00  3.14159265E+00
 -0.00000000E+00 -0.00000000E+00  3.14159265E+00  3.14159265E+00  0.00000000E+00
  0.00000000E+00  3.14159265E+00  3.14159265E+00 -0.00000000E+00
ZRed-IntVec                                I   N=          54
           0           0           0           0           0           0
           0           0           0           0           0           0
           0           0           0           0           0           0
           0           0           0           0           0           0
           0           0           0           0           0           0
           0           0           0           0           0           0
           0           0           0           0           0           0
           0           0           0           0           0           0
           0           0           0           0           0           0
ZRed-FPVec                                 R   N=          54
  0.00000000E+00  0.00000000E+00  0.00000000E+00  0.00000000E+00  0.00000000E+00
  0.00000000E+00  0.00000000E+00  0.00000000E+00  0.00000000E+00  0.00000000E+00
  0.00000000E+00  0.00000000E+00  0.00000000E+00  0.00000000E+00  0.00000000E+00
  0.00000000E+00  0.00000000E+00  0.00000000E+00  0.00000000E+00  0.00000000E+00
  0.00000000E+00  0.00000000E+00  0.00000000E+00  0.00000000E+00  0.00000000E+00
  0.00000000E+00  0.00000000E+00  0.00000000E+00  0.00000000E+00  0.00000000E+00
  0.00000000E+00  0.00000000E+00  0.00000000E+00  0.00000000E+00  0.00000000E+00
  0.00000000E+00  0.00000000E+00  0.00000000E+00  0.00000000E+00  0.00000000E+00
  0.00000000E+00  0.00000000E+00  0.00000000E+00  0.00000000E+00  0.00000000E+00
  0.00000000E+00  0.00000000E+00  0.00000000E+00  0.00000000E+00  0.00000000E+00
  0.00000000E+00  0.00000000E+00  0.00000000E+00  0.00000000E+00
ZRed-Constraint1                           R   N=          54
  2.64901033E+00  2.63780990E+00  3.25488997E+00  2.63780986E+00  3.25488995E+00
  2.62350468E+00  3.26979764E+00  2.61473986E+00  2.04431450E+00  2.62350482E+00
  2.04431473E+00  3.26979762E+00  2.08535082E+00  2.09711667E+00  2.10071782E+00
  2.08535078E+00  2.09711674E+00  2.10071779E+00  2.10186599E+00  2.10945787E+00
  2.07186145E+00  2.09596858E+00  2.08124654E+00  2.10597019E+00  2.09596848E+00
  2.10597021E+00  2.08124662E+00  2.10186596E+00  2.10945795E+00  2.07186140E+00
 -0.00000000E+00  3.14159265E+00  3.14159265E+00  0.00000000E+00  0.00000000E+00
  3.14159265E+00  3.14159265E+00 -0.00000000E+00  0.00000000E+00  3.14159265E+00
  3.14159265E+00  0.00000000E+00 -0.00000000E+00  3.14159265E+00  3.14159265E+00
  0.00000000E+00  0.00000000E+00  3.14159265E+00  3.14159265E+00 -0.00000000E+00
 -0.00000000E+00  3.14159265E+00  3.14159265E+00  0.00000000E+00
ZRed-Constraint2                           R   N=          54
  2.65782467E+00  2.65282254E+00  3.19794587E+00  2.65282195E+00  3.19794589E+00
  2.64310374E+00  3.20247041E+00  2.62662550E+00  2.08147878E+00  2.64310789E+00
  2.08177392E+00  3.20247044E+00  2.08807729E+00  2.09698004E+00  2.09812798E+00
  2.08807679E+00  2.09698036E+00  2.09812815E+00  2.09812584E+00  2.11044825E+00
  2.07461121E+00  2.09698498E+00  2.09388090E+00  2.09231943E+00  2.09697838E+00
  2.09232218E+00  2.09388474E+00  2.09812732E+00  2.11044717E+00  2.07461081E+00
 -0.00000000E+00  3.14159265E+00  3.14159265E+00  0.00000000E+00  0.00000000E+00
  3.14159265E+00  3.14159265E+00 -0.00000000E+00  0.00000000E+00  3.14159265E+00
  3.14159265E+00 -0.00000000E+00 -0.00000000E+00  3.14159265E+00  3.14159265E+00
  0.00000000E+00  0.00000000E+00  3.14159265E+00  3.14159265E+00 -0.00000000E+00
 -0.00000000E+00  3.14159265E+00  3.14159265E+00  0.00000000E+00
SymInf integers                            I   N=          26
           1           2           1           1           1           1
           1          -1           0           0           0           0
           0           0           0           0           0           0
           0           0           0           0           0           0
           0           0
RotTr to input orientation                 R   N=          12
  5.23593100E-01 -8.51968465E-01 -3.66556459E-24  8.51968465E-01  5.23593100E-01
  1.22464680E-16 -1.04336043E-16 -6.41216645E-17  1.00000000E+00 -4.44519823E+00
  2.78799000E-01 -3.69161490E-18
Number of contracted shells                I               98
Number of primitive shells                 I              192
Pure/Cartesian d shells                    I                0
Pure/Cartesian f shells                    I                0
Highest angular momentum                   I                2
Largest degree of contraction              I                6
Shell types                                I   N=          98
           0          -1          -1          -1          -1          -2
           0          -1          -1          -1          -1          -2
           0          -1          -1          -1          -1          -2
           0          -1          -1          -1          -1          -2
           0          -1          -1          -1          -1          -2
           0          -1          -1          -1          -1          -2
           0           0           0           0           0           0
          -1           1           1           1           1           1
          -2           0           0           0           0           0
           0          -1           1           1           1           1
           1          -2           0           0           0           0
           0           0          -1           1           1           1
           1           1          -2           0           0           0
           0           0           0          -1           1           1
           1           1           1          -2           0           0
           0           0           1           0           0           0
           0           1
Number of primitives per shell             I   N=          98
           6           3           1           1           1           1
           6           3           1           1           1           1
           6           3           1           1           1           1
           6           3           1           1           1           1
           6           3           1           1           1           1
           6           3           1           1           1           1
           6           3           1           1           1           1
           1           5           2           1           1           1
           1           6           3           1           1           1
           1           1           5           2           1           1
           1           1           6           3           1           1
           1           1           1           5           2           1
           1           1           1           6           3           1
           1           1           1           1           5           2
           1           1           1           1           3           1
           1           1           1           3           1           1
           1           1
Shell to atom map                          I   N=          98
           1           1           1           1           1           1
           2           2           2           2           2           2
           3           3           3           3           3           3
           4           4           4           4           4           4
           5           5           5           5           5           5
           6           6           6           6           6           6
           7           7           7           7           7           7
           7           7           7           7           7           7
           7           8           8           8           8           8
           8           8           8           8           8           8
           8           8           9           9           9           9
           9           9           9           9           9           9
           9           9           9          10          10          10
          10          10          10          10          10          10
          10          10          10          10          11          11
          11          11          11          12          12          12
          12          12
Primitive exponents                        R   N=         192
  4.56324000E+03  6.82024000E+02  1.54973000E+02  4.44553000E+01  1.30290000E+01
  1.82773000E+00  2.09642000E+01  4.80331000E+00  1.45933000E+00  4.83456000E-01
  1.45585000E-01  4.38000000E-02  6.26000000E-01  4.56324000E+03  6.82024000E+02
  1.54973000E+02  4.44553000E+01  1.30290000E+01  1.82773000E+00  2.09642000E+01
  4.80331000E+00  1.45933000E+00  4.83456000E-01  1.45585000E-01  4.38000000E-02
  6.26000000E-01  4.56324000E+03  6.82024000E+02  1.54973000E+02  4.44553000E+01
  1.30290000E+01  1.82773000E+00  2.09642000E+01  4.80331000E+00  1.45933000E+00
  4.83456000E-01  1.45585000E-01  4.38000000E-02  6.26000000E-01  4.56324000E+03
  6.82024000E+02  1.54973000E+02  4.44553000E+01  1.30290000E+01  1.82773000E+00
  2.09642000E+01  4.80331000E+00  1.45933000E+00  4.83456000E-01  1.45585000E-01
  4.38000000E-02  6.26000000E-01  4.56324000E+03  6.82024000E+02  1.54973000E+02
  4.44553000E+01  1.30290000E+01  1.82773000E+00  2.09642000E+01  4.80331000E+00
  1.45933000E+00  4.83456000E-01  1.45585000E-01  4.38000000E-02  6.26000000E-01
  4.56324000E+03  6.82024000E+02  1.54973000E+02  4.44553000E+01  1.30290000E+01
  1.82773000E+00  2.09642000E+01  4.80331000E+00  1.45933000E+00  4.83456000E-01
  1.45585000E-01  4.38000000E-02  6.26000000E-01  1.05819000E+05  1.58720000E+04
  3.61965000E+03  1.03080000E+03  3.39908000E+02  1.24538000E+02  1.24538000E+02
  4.95135000E+01  2.08056000E+01  6.58346000E+00  2.56468000E+00  5.59763000E-01
  1.83273000E-01  4.83000000E-02  5.89776000E+02  1.39849000E+02  4.51413000E+01
  1.68733000E+01  2.77152000E+00  6.74110000E+00  2.77152000E+00  1.02387000E+00
  3.81368000E-01  1.09437000E-01  7.50000000E-01  1.05819000E+05  1.58720000E+04
  3.61965000E+03  1.03080000E+03  3.39908000E+02  1.24538000E+02  1.24538000E+02
  4.95135000E+01  2.08056000E+01  6.58346000E+00  2.56468000E+00  5.59763000E-01
  1.83273000E-01  4.83000000E-02  5.89776000E+02  1.39849000E+02  4.51413000E+01
  1.68733000E+01  2.77152000E+00  6.74110000E+00  2.77152000E+00  1.02387000E+00
  3.81368000E-01  1.09437000E-01  7.50000000E-01  1.05819000E+05  1.58720000E+04
  3.61965000E+03  1.03080000E+03  3.39908000E+02  1.24538000E+02  1.24538000E+02
  4.95135000E+01  2.08056000E+01  6.58346000E+00  2.56468000E+00  5.59763000E-01
  1.83273000E-01  4.83000000E-02  5.89776000E+02  1.39849000E+02  4.51413000E+01
  1.68733000E+01  2.77152000E+00  6.74110000E+00  2.77152000E+00  1.02387000E+00
  3.81368000E-01  1.09437000E-01  7.50000000E-01  1.05819000E+05  1.58720000E+04
  3.61965000E+03  1.03080000E+03  3.39908000E+02  1.24538000E+02  1.24538000E+02
  4.95135000E+01  2.08056000E+01  6.58346000E+00  2.56468000E+00  5.59763000E-01
  1.83273000E-01  4.83000000E-02  5.89776000E+02  1.39849000E+02  4.51413000E+01
  1.68733000E+01  2.77152000E+00  6.74110000E+00  2.77152000E+00  1.02387000E+00
  3.81368000E-01  1.09437000E-01  7.50000000E-01  3.38650000E+01  5.09479000E+00
  1.15879000E+00  3.25840000E-01  1.02741000E-01  3.60000000E-02  7.50000000E-01
  3.38650000E+01  5.09479000E+00  1.15879000E+00  3.25840000E-01  1.02741000E-01
  3.60000000E-02  7.50000000E-01
Contraction coefficients                   R   N=         192
  1.96665025E-03  1.52306019E-02  7.61269097E-02  2.60801033E-01  6.16462078E-01
  2.21006028E-01  1.14660081E-01  9.19999648E-01 -3.03068213E-03  1.00000000E+00
  1.00000000E+00  1.00000000E+00  1.00000000E+00  1.96665025E-03  1.52306019E-02
  7.61269097E-02  2.60801033E-01  6.16462078E-01  2.21006028E-01  1.14660081E-01
  9.19999648E-01 -3.03068213E-03  1.00000000E+00  1.00000000E+00  1.00000000E+00
  1.00000000E+00  1.96665025E-03  1.52306019E-02  7.61269097E-02  2.60801033E-01
  6.16462078E-01  2.21006028E-01  1.14660081E-01  9.19999648E-01 -3.03068213E-03
  1.00000000E+00  1.00000000E+00  1.00000000E+00  1.00000000E+00  1.96665025E-03
  1.52306019E-02  7.61269097E-02  2.60801033E-01  6.16462078E-01  2.21006028E-01
  1.14660081E-01  9.19999648E-01 -3.03068213E-03  1.00000000E+00  1.00000000E+00
  1.00000000E+00  1.00000000E+00  1.96665025E-03  1.52306019E-02  7.61269097E-02
  2.60801033E-01  6.16462078E-01  2.21006028E-01  1.14660081E-01  9.19999648E-01
 -3.03068213E-03  1.00000000E+00  1.00000000E+00  1.00000000E+00  1.00000000E+00
  1.96665025E-03  1.52306019E-02  7.61269097E-02  2.60801033E-01  6.16462078E-01
  2.21006028E-01  1.14660081E-01  9.19999648E-01 -3.03068213E-03  1.00000000E+00
  1.00000000E+00  1.00000000E+00  1.00000000E+00  7.38000247E-04  5.71800191E-03
  2.94950099E-02  1.17286039E-01  3.62949121E-01  5.84149195E-01  1.34176973E-01
  6.24249876E-01  2.91755942E-01  1.00000000E+00  1.00000000E+00  1.00000000E+00
  1.00000000E+00  1.00000000E+00  3.66556935E-03  2.83679194E-02  1.24756603E-01
  3.39654631E-01  7.47585963E-01 -1.57224381E+00  9.92388882E-01  1.00000000E+00
  1.00000000E+00  1.00000000E+00  1.00000000E+00  7.38000247E-04  5.71800191E-03
  2.94950099E-02  1.17286039E-01  3.62949121E-01  5.84149195E-01  1.34176973E-01
  6.24249876E-01  2.91755942E-01  1.00000000E+00  1.00000000E+00  1.00000000E+00
  1.00000000E+00  1.00000000E+00  3.66556935E-03  2.83679194E-02  1.24756603E-01
  3.39654631E-01  7.47585963E-01 -1.57224381E+00  9.92388882E-01  1.00000000E+00
  1.00000000E+00  1.00000000E+00  1.00000000E+00  7.38000247E-04  5.71800191E-03
  2.94950099E-02  1.17286039E-01  3.62949121E-01  5.84149195E-01  1.34176973E-01
  6.24249876E-01  2.91755942E-01  1.00000000E+00  1.00000000E+00  1.00000000E+00
  1.00000000E+00  1.00000000E+00  3.66556935E-03  2.83679194E-02  1.24756603E-01
  3.39654631E-01  7.47585963E-01 -1.57224381E+00  9.92388882E-01  1.00000000E+00
  1.00000000E+00  1.00000000E+00  1.00000000E+00  7.38000247E-04  5.71800191E-03
  2.94950099E-02  1.17286039E-01  3.62949121E-01  5.84149195E-01  1.34176973E-01
  6.24249876E-01  2.91755942E-01  1.00000000E+00  1.00000000E+00  1.00000000E+00
  1.00000000E+00  1.00000000E+00  3.66556935E-03  2.83679194E-02  1.24756603E-01
  3.39654631E-01  7.47585963E-01 -1.57224381E+00  9.92388882E-01  1.00000000E+00
  1.00000000E+00  1.00000000E+00  1.00000000E+00  2.54938145E-02  1.90373109E-01
  8.52161486E-01  1.00000000E+00  1.00000000E+00  1.00000000E+00  1.00000000E+00
  2.54938145E-02  1.90373109E-01  8.52161486E-01  1.00000000E+00  1.00000000E+00
  1.00000000E+00  1.00000000E+00
P(S=P) Contraction coefficients            R   N=         192
  0.00000000E+00  0.00000000E+00  0.00000000E+00  0.00000000E+00  0.00000000E+00
  0.00000000E+00  4.02486927E-02  2.37593957E-01  8.15853851E-01  1.00000000E+00
  1.00000000E+00  1.00000000E+00  0.00000000E+00  0.00000000E+00  0.00000000E+00
  0.00000000E+00  0.00000000E+00  0.00000000E+00  0.00000000E+00  4.02486927E-02
  2.37593957E-01  8.15853851E-01  1.00000000E+00  1.00000000E+00  1.00000000E+00
  0.00000000E+00  0.00000000E+00  0.00000000E+00  0.00000000E+00  0.00000000E+00
  0.00000000E+00  0.00000000E+00  4.02486927E-02  2.37593957E-01  8.15853851E-01
  1.00000000E+00  1.00000000E+00  1.00000000E+00  0.00000000E+00  0.00000000E+00
  0.00000000E+00  0.00000000E+00  0.00000000E+00  0.00000000E+00  0.00000000E+00
  4.02486927E-02  2.37593957E-01  8.15853851E-01  1.00000000E+00  1.00000000E+00
  1.00000000E+00  0.00000000E+00  0.00000000E+00  0.00000000E+00  0.00000000E+00
  0.00000000E+00  0.00000000E+00  0.00000000E+00  4.02486927E-02  2.37593957E-01
  8.15853851E-01  1.00000000E+00  1.00000000E+00  1.00000000E+00  0.00000000E+00
  0.00000000E+00  0.00000000E+00  0.00000000E+00  0.00000000E+00  0.00000000E+00
  0.00000000E+00  4.02486927E-02  2.37593957E-01  8.15853851E-01  1.00000000E+00
  1.00000000E+00  1.00000000E+00  0.00000000E+00  0.00000000E+00  0.00000000E+00
  0.00000000E+00  0.00000000E+00  0.00000000E+00  0.00000000E+00  0.00000000E+00
  0.00000000E+00  0.00000000E+00  0.00000000E+00  0.00000000E+00  0.00000000E+00
  0.00000000E+00  1.00000000E+00  0.00000000E+00  0.00000000E+00  0.00000000E+00
  0.00000000E+00  0.00000000E+00  0.00000000E+00  0.00000000E+00  0.00000000E+00
  0.00000000E+00  0.00000000E+00  0.00000000E+00  0.00000000E+00  0.00000000E+00
  0.00000000E+00  0.00000000E+00  0.00000000E+00  0.00000000E+00  0.00000000E+00
  0.00000000E+00  0.00000000E+00  0.00000000E+00  0.00000000E+00  0.00000000E+00
  0.00000000E+00  1.00000000E+00  0.00000000E+00  0.00000000E+00  0.00000000E+00
  0.00000000E+00  0.00000000E+00  0.00000000E+00  0.00000000E+00  0.00000000E+00
  0.00000000E+00  0.00000000E+00  0.00000000E+00  0.00000000E+00  0.00000000E+00
  0.00000000E+00  0.00000000E+00  0.00000000E+00  0.00000000E+00  0.00000000E+00
  0.00000000E+00  0.00000000E+00  0.00000000E+00  0.00000000E+00  0.00000000E+00
  0.00000000E+00  1.00000000E+00  0.00000000E+00  0.00000000E+00  0.00000000E+00
  0.00000000E+00  0.00000000E+00  0.00000000E+00  0.00000000E+00  0.00000000E+00
  0.00000000E+00  0.00000000E+00  0.00000000E+00  0.00000000E+00  0.00000000E+00
  0.00000000E+00  0.00000000E+00  0.00000000E+00  0.00000000E+00  0.00000000E+00
  0.00000000E+00  0.00000000E+00  0.00000000E+00  0.00000000E+00  0.00000000E+00
  0.00000000E+00  1.00000000E+00  0.00000000E+00  0.00000000E+00  0.00000000E+00
  0.00000000E+00  0.00000000E+00  0.00000000E+00  0.00000000E+00  0.00000000E+00
  0.00000000E+00  0.00000000E+00  0.00000000E+00  0.00000000E+00  0.00000000E+00
  0.00000000E+00  0.00000000E+00  0.00000000E+00  0.00000000E+00  0.00000000E+00
  0.00000000E+00  0.00000000E+00  0.00000000E+00  0.00000000E+00  0.00000000E+00
  0.00000000E+00  0.00000000E+00
Coordinates of each shell                  R   N=         294
 -7.55301969E-01 -1.32450517E+00  4.93038066E-32 -7.55301969E-01 -1.32450517E+00
  4.93038066E-32 -7.55301969E-01 -1.32450517E+00  4.93038066E-32 -7.55301969E-01
 -1.32450517E+00  4.93038066E-32 -7.55301969E-01 -1.32450517E+00  4.93038066E-32
 -7.55301969E-01 -1.32450517E+00  4.93038066E-32 -7.55301969E-01  1.32450516E+00
 -9.86076132E-32 -7.55301969E-01  1.32450516E+00 -9.86076132E-32 -7.55301969E-01
  1.32450516E+00 -9.86076132E-32 -7.55301969E-01  1.32450516E+00 -9.86076132E-32
 -7.55301969E-01  1.32450516E+00 -9.86076132E-32 -7.55301969E-01  1.32450516E+00
 -9.86076132E-32  1.54094339E+00  2.62269549E+00 -4.93038066E-32  1.54094339E+00
  2.62269549E+00 -4.93038066E-32  1.54094339E+00  2.62269549E+00 -4.93038066E-32
  1.54094339E+00  2.62269549E+00 -4.93038066E-32  1.54094339E+00  2.62269549E+00
 -4.93038066E-32  1.54094339E+00  2.62269549E+00 -4.93038066E-32  3.81089832E+00
  1.30736990E+00  7.39557099E-32  3.81089832E+00  1.30736990E+00  7.39557099E-32
  3.81089832E+00  1.30736990E+00  7.39557099E-32  3.81089832E+00  1.30736990E+00
  7.39557099E-32  3.81089832E+00  1.30736990E+00  7.39557099E-32  3.81089832E+00
  1.30736990E+00  7.39557099E-32  3.81089843E+00 -1.30736996E+00  1.72563323E-31
  3.81089843E+00 -1.30736996E+00  1.72563323E-31  3.81089843E+00 -1.30736996E+00
  1.72563323E-31  3.81089843E+00 -1.30736996E+00  1.72563323E-31  3.81089843E+00
 -1.30736996E+00  1.72563323E-31  3.81089843E+00 -1.30736996E+00  1.72563323E-31
  1.54094337E+00 -2.62269560E+00  1.97215226E-31  1.54094337E+00 -2.62269560E+00
  1.97215226E-31  1.54094337E+00 -2.62269560E+00  1.97215226E-31  1.54094337E+00
 -2.62269560E+00  1.97215226E-31  1.54094337E+00 -2.62269560E+00  1.97215226E-31
  1.54094337E+00 -2.62269560E+00  1.97215226E-31  1.61976118E+00 -5.89154314E+00
  2.95822839E-31  1.61976118E+00 -5.89154314E+00  2.95822839E-31  1.61976118E+00
 -5.89154314E+00  2.95822839E-31  1.61976118E+00 -5.89154314E+00  2.95822839E-31
  1.61976118E+00 -5.89154314E+00  2.95822839E-31  1.61976118E+00 -5.89154314E+00
  2.95822839E-31  1.61976118E+00 -5.89154314E+00  2.95822839E-31  1.61976118E+00
 -5.89154314E+00  2.95822839E-31  1.61976118E+00 -5.89154314E+00  2.95822839E-31
  1.61976118E+00 -5.89154314E+00  2.95822839E-31  1.61976118E+00 -5.89154314E+00
  2.95822839E-31  1.61976118E+00 -5.89154314E+00  2.95822839E-31  1.61976118E+00
 -5.89154314E+00  2.95822839E-31 -3.56967974E+00 -2.95961572E+00  9.86076132E-32
 -3.56967974E+00 -2.95961572E+00  9.86076132E-32 -3.56967974E+00 -2.95961572E+00
  9.86076132E-32 -3.56967974E+00 -2.95961572E+00  9.86076132E-32 -3.56967974E+00
 -2.95961572E+00  9.86076132E-32 -3.56967974E+00 -2.95961572E+00  9.86076132E-32
 -3.56967974E+00 -2.95961572E+00  9.86076132E-32 -3.56967974E+00 -2.95961572E+00
  9.86076132E-32 -3.56967974E+00 -2.95961572E+00  9.86076132E-32 -3.56967974E+00