6-Chloro-Benzene (123456)                                               
Freq      RM062X                                                      6-311++G(d,p)       
Number of atoms                            I               12
Info1-9                                    I   N=           9
           8           6        1002           0           0         100
           6          18       -5502
Full Title                                 C   N=           3
6-Chloro-Benzene (123456)           
Route                                      C   N=           5
# opt freq 6-311++g(d,p) guess=read geom=allcheck m062x     
Charge                                     I                0
Multiplicity                               I                1
Number of electrons                        I              138
Number of alpha electrons                  I               69
Number of beta electrons                   I               69
Number of basis functions                  I              312
Number of independent functions            I              310
Number of point charges in /Mol/           I                0
Number of translation vectors              I                0
Atomic numbers                             I   N=          12
           6           6           6           6           6           6
          17          17          17          17          17          17
Nuclear charges                            R   N=          12
  6.00000000E+00  6.00000000E+00  6.00000000E+00  6.00000000E+00  6.00000000E+00
  6.00000000E+00  1.70000000E+01  1.70000000E+01  1.70000000E+01  1.70000000E+01
  1.70000000E+01  1.70000000E+01
Current cartesian coordinates              R   N=          36
 -2.28578368E+00  1.31976621E+00  1.47911420E-31 -2.28578368E+00 -1.31976618E+00
  4.93038066E-32  5.25938533E-08 -2.63944058E+00  1.64245713E-32  2.28578346E+00
 -1.31976626E+00 -4.93038066E-32  2.28578349E+00  1.31976625E+00 -1.47911420E-31
  6.62869051E-08  2.63944061E+00 -5.93487349E-32 -4.05784236E-07  5.89127118E+00
  1.51137352E-31 -5.10184836E+00  2.94524923E+00 -9.86076132E-32 -5.10184835E+00
 -2.94524921E+00  9.86076132E-32 -4.01689250E-07 -5.89127113E+00 -3.28611797E-33
  5.10184877E+00 -2.94524809E+00 -3.94430453E-31  5.10184885E+00  2.94524800E+00
 -4.93038066E-31
Number of symbols in /Mol/                 I                0
Force Field                                I                0
Atom Types                                 C   N=          12
                                                            
                                                            
                        
Int Atom Types                             I   N=          12
           0           0           0           0           0           0
           0           0           0           0           0           0
MM charges                                 R   N=          12
  0.00000000E+00  0.00000000E+00  0.00000000E+00  0.00000000E+00  0.00000000E+00
  0.00000000E+00  0.00000000E+00  0.00000000E+00  0.00000000E+00  0.00000000E+00
  0.00000000E+00  0.00000000E+00
Integer atomic weights                     I   N=          12
          12          12          12          12          12          12
          35          35          35          35          35          35
Real atomic weights                        R   N=          12
  1.20000000E+01  1.20000000E+01  1.20000000E+01  1.20000000E+01  1.20000000E+01
  1.20000000E+01  3.49688527E+01  3.49688527E+01  3.49688527E+01  3.49688527E+01
  3.49688527E+01  3.49688527E+01
Atom fragment info                         I   N=          12
           0           0           0           0           0           0
           0           0           0           0           0           0
Atom residue num                           I   N=          12
           0           0           0           0           0           0
           0           0           0           0           0           0
Nuclear spins                              I   N=          12
           0           0           0           0           0           0
           3           3           3           3           3           3
Nuclear ZEff                               R   N=          12
 -3.60000000E+00 -3.60000000E+00 -3.60000000E+00 -3.60000000E+00 -3.60000000E+00
 -3.60000000E+00 -1.42400000E+01 -1.42400000E+01 -1.42400000E+01 -1.42400000E+01
 -1.42400000E+01 -1.42400000E+01
Nuclear ZNuc                               R   N=          12
  6.00000000E+00  6.00000000E+00  6.00000000E+00  6.00000000E+00  6.00000000E+00
  6.00000000E+00  1.70000000E+01  1.70000000E+01  1.70000000E+01  1.70000000E+01
  1.70000000E+01  1.70000000E+01
Nuclear QMom                               R   N=          12
  0.00000000E+00  0.00000000E+00  0.00000000E+00  0.00000000E+00  0.00000000E+00
  0.00000000E+00 -8.16500000E+00 -8.16500000E+00 -8.16500000E+00 -8.16500000E+00
 -8.16500000E+00 -8.16500000E+00
Nuclear GFac                               R   N=          12
  0.00000000E+00  0.00000000E+00  0.00000000E+00  0.00000000E+00  0.00000000E+00
  0.00000000E+00  8.21874000E-01  8.21874000E-01  8.21874000E-01  8.21874000E-01
  8.21874000E-01  8.21874000E-01
MicOpt                                     I   N=          12
          -1          -1          -1          -1          -1          -1
          -1          -1          -1          -1          -1          -1
Number of residues                         I                0
Number of secondary structures             I                0
Redundant internal dimensions              I   N=           4
          54          12          18          24
Redundant internal coordinate indices      I   N=         216
           1           2           0           0           1           6
           0           0           1           8           0           0
           2           3           0           0           2           9
           0           0           3           4           0           0
           3          10           0           0           4           5
           0           0           4          11           0           0
           5           6           0           0           5          12
           0           0           6           7           0           0
           2           1           6           0           2           1
           8           0           6           1           8           0
           1           2           3           0           1           2
           9           0           3           2           9           0
           2           3           4           0           2           3
          10           0           4           3          10           0
           3           4           5           0           3           4
          11           0           5           4          11           0
           4           5           6           0           4           5
          12           0           6           5          12           0
           1           6           5           0           1           6
           7           0           5           6           7           0
           6           1           2           3           6           1
           2           9           8           1           2           3
           8           1           2           9           2           1
           6           5           2           1           6           7
           8           1           6           5           8           1
           6           7           1           2           3           4
           1           2           3          10           9           2
           3           4           9           2           3          10
           2           3           4           5           2           3
           4          11          10           3           4           5
          10           3           4          11           3           4
           5           6           3           4           5          12
          11           4           5           6          11           4
           5          12           4           5           6           1
           4           5           6           7          12           5
           6           1          12           5           6           7
Redundant internal coordinates             R   N=          54
  2.63953240E+00  2.63938399E+00  3.25152508E+00  2.63938398E+00  3.25152508E+00
  2.63938366E+00  3.25183055E+00  2.63953252E+00  3.25152503E+00  2.63938369E+00
  3.25152503E+00  3.25183058E+00  2.09438740E+00  2.09429584E+00  2.09450206E+00
  2.09438741E+00  2.09429584E+00  2.09450206E+00  2.09441046E+00  2.09438727E+00
  2.09438758E+00  2.09438745E+00  2.09450244E+00  2.09429542E+00  2.09438744E+00
  2.09429541E+00  2.09450246E+00  2.09441045E+00  2.09438726E+00  2.09438760E+00
  0.00000000E+00  3.14159265E+00  3.14159265E+00 -0.00000000E+00 -0.00000000E+00
  3.14159265E+00  3.14159265E+00  0.00000000E+00  0.00000000E+00  3.14159265E+00
  3.14159265E+00 -0.00000000E+00 -0.00000000E+00  3.14159265E+00  3.14159265E+00
  0.00000000E+00  0.00000000E+00  3.14159265E+00  3.14159265E+00 -0.00000000E+00
  0.00000000E+00  3.14159265E+00  3.14159265E+00 -0.00000000E+00
ZRed-IntVec                                I   N=          54
           0           0           0           0           0           0
           0           0           0           0           0           0
           0           0           0           0           0           0
           0           0           0           0           0           0
           0           0           0           0           0           0
           0           0           0           0           0           0
           0           0           0           0           0           0
           0           0           0           0           0           0
           0           0           0           0           0           0
ZRed-FPVec                                 R   N=          54
  0.00000000E+00  0.00000000E+00  0.00000000E+00  0.00000000E+00  0.00000000E+00
  0.00000000E+00  0.00000000E+00  0.00000000E+00  0.00000000E+00  0.00000000E+00
  0.00000000E+00  0.00000000E+00  0.00000000E+00  0.00000000E+00  0.00000000E+00
  0.00000000E+00  0.00000000E+00  0.00000000E+00  0.00000000E+00  0.00000000E+00
  0.00000000E+00  0.00000000E+00  0.00000000E+00  0.00000000E+00  0.00000000E+00
  0.00000000E+00  0.00000000E+00  0.00000000E+00  0.00000000E+00  0.00000000E+00
  0.00000000E+00  0.00000000E+00  0.00000000E+00  0.00000000E+00  0.00000000E+00
  0.00000000E+00  0.00000000E+00  0.00000000E+00  0.00000000E+00  0.00000000E+00
  0.00000000E+00  0.00000000E+00  0.00000000E+00  0.00000000E+00  0.00000000E+00
  0.00000000E+00  0.00000000E+00  0.00000000E+00  0.00000000E+00  0.00000000E+00
  0.00000000E+00  0.00000000E+00  0.00000000E+00  0.00000000E+00
ZRed-Constraint1                           R   N=          54
  2.63953240E+00  2.63938399E+00  3.25152508E+00  2.63938398E+00  3.25152508E+00
  2.63938366E+00  3.25183055E+00  2.63953252E+00  3.25152503E+00  2.63938369E+00
  3.25152503E+00  3.25183058E+00  2.09438740E+00  2.09429584E+00  2.09450206E+00
  2.09438741E+00  2.09429584E+00  2.09450206E+00  2.09441046E+00  2.09438727E+00
  2.09438758E+00  2.09438745E+00  2.09450244E+00  2.09429542E+00  2.09438744E+00
  2.09429541E+00  2.09450246E+00  2.09441045E+00  2.09438726E+00  2.09438760E+00
  0.00000000E+00  3.14159265E+00  3.14159265E+00 -0.00000000E+00 -0.00000000E+00
  3.14159265E+00  3.14159265E+00 -0.00000000E+00 -0.00000000E+00  3.14159265E+00
  3.14159265E+00  0.00000000E+00  0.00000000E+00  3.14159265E+00  3.14159265E+00
 -0.00000000E+00 -0.00000000E+00  3.14159265E+00  3.14159265E+00  0.00000000E+00
  0.00000000E+00  3.14159265E+00  3.14159265E+00 -0.00000000E+00
ZRed-Constraint2                           R   N=          54
  2.65362225E+00  2.65362376E+00  3.19786391E+00  2.65362378E+00  3.19786369E+00
  2.65362202E+00  3.19786374E+00  2.65362378E+00  3.19786335E+00  2.65362189E+00
  3.19786327E+00  3.19786396E+00  2.09439483E+00  2.09439546E+00  2.09439502E+00
  2.09439495E+00  2.09439554E+00  2.09439482E+00  2.09439545E+00  2.09439475E+00
  2.09439512E+00  2.09439487E+00  2.09439570E+00  2.09439473E+00  2.09439504E+00
  2.09439440E+00  2.09439587E+00  2.09439548E+00  2.09439467E+00  2.09439516E+00
  0.00000000E+00  3.14159265E+00  3.14159265E+00  0.00000000E+00  0.00000000E+00
  3.14159265E+00  3.14159265E+00  0.00000000E+00  0.00000000E+00  3.14159265E+00
  3.14159265E+00  0.00000000E+00  0.00000000E+00  3.14159265E+00  3.14159265E+00
  0.00000000E+00  0.00000000E+00  3.14159265E+00  3.14159265E+00  0.00000000E+00
  0.00000000E+00  3.14159265E+00  3.14159265E+00  0.00000000E+00
SymInf integers                            I   N=          26
           1           2           1           1           1           1
           1          -1           0           0           0           0
           0           0           0           0           0           0
           0           0           0           0           0           0
           0           0
RotTr to input orientation                 R   N=          12
  5.23593195E-01 -8.51968407E-01 -1.22464679E-16 -8.51968407E-01 -5.23593195E-01
  1.67212921E-20 -6.41359184E-17  1.04327282E-16 -1.00000000E+00 -3.72822491E+00
 -8.87829564E-01  4.78988098E-23
Number of contracted shells                I              114
Number of primitive shells                 I              228
Pure/Cartesian d shells                    I                0
Pure/Cartesian f shells                    I                0
Highest angular momentum                   I                2
Largest degree of contraction              I                6
Shell types                                I   N=         114
           0          -1          -1          -1          -1          -2
           0          -1          -1          -1          -1          -2
           0          -1          -1          -1          -1          -2
           0          -1          -1          -1          -1          -2
           0          -1          -1          -1          -1          -2
           0          -1          -1          -1          -1          -2
           0           0           0           0           0           0
          -1           1           1           1           1           1
          -2           0           0           0           0           0
           0          -1           1           1           1           1
           1          -2           0           0           0           0
           0           0          -1           1           1           1
           1           1          -2           0           0           0
           0           0           0          -1           1           1
           1           1           1          -2           0           0
           0           0           0           0          -1           1
           1           1           1           1          -2           0
           0           0           0           0           0          -1
           1           1           1           1           1          -2
Number of primitives per shell             I   N=         114
           6           3           1           1           1           1
           6           3           1           1           1           1
           6           3           1           1           1           1
           6           3           1           1           1           1
           6           3           1           1           1           1
           6           3           1           1           1           1
           6           3           1           1           1           1
           1           5           2           1           1           1
           1           6           3           1           1           1
           1           1           5           2           1           1
           1           1           6           3           1           1
           1           1           1           5           2           1
           1           1           1           6           3           1
           1           1           1           1           5           2
           1           1           1           1           6           3
           1           1           1           1           1           5
           2           1           1           1           1           6
           3           1           1           1           1           1
           5           2           1           1           1           1
Shell to atom map                          I   N=         114
           1           1           1           1           1           1
           2           2           2           2           2           2
           3           3           3           3           3           3
           4           4           4           4           4           4
           5           5           5           5           5           5
           6           6           6           6           6           6
           7           7           7           7           7           7
           7           7           7           7           7           7
           7           8           8           8           8           8
           8           8           8           8           8           8
           8           8           9           9           9           9
           9           9           9           9           9           9
           9           9           9          10          10          10
          10          10          10          10          10          10
          10          10          10          10          11          11
          11          11          11          11          11          11
          11          11          11          11          11          12
          12          12          12          12          12          12
          12          12          12          12          12          12
Primitive exponents                        R   N=         228
  4.56324000E+03  6.82024000E+02  1.54973000E+02  4.44553000E+01  1.30290000E+01
  1.82773000E+00  2.09642000E+01  4.80331000E+00  1.45933000E+00  4.83456000E-01
  1.45585000E-01  4.38000000E-02  6.26000000E-01  4.56324000E+03  6.82024000E+02
  1.54973000E+02  4.44553000E+01  1.30290000E+01  1.82773000E+00  2.09642000E+01
  4.80331000E+00  1.45933000E+00  4.83456000E-01  1.45585000E-01  4.38000000E-02
  6.26000000E-01  4.56324000E+03  6.82024000E+02  1.54973000E+02  4.44553000E+01
  1.30290000E+01  1.82773000E+00  2.09642000E+01  4.80331000E+00  1.45933000E+00
  4.83456000E-01  1.45585000E-01  4.38000000E-02  6.26000000E-01  4.56324000E+03
  6.82024000E+02  1.54973000E+02  4.44553000E+01  1.30290000E+01  1.82773000E+00
  2.09642000E+01  4.80331000E+00  1.45933000E+00  4.83456000E-01  1.45585000E-01
  4.38000000E-02  6.26000000E-01  4.56324000E+03  6.82024000E+02  1.54973000E+02
  4.44553000E+01  1.30290000E+01  1.82773000E+00  2.09642000E+01  4.80331000E+00
  1.45933000E+00  4.83456000E-01  1.45585000E-01  4.38000000E-02  6.26000000E-01
  4.56324000E+03  6.82024000E+02  1.54973000E+02  4.44553000E+01  1.30290000E+01
  1.82773000E+00  2.09642000E+01  4.80331000E+00  1.45933000E+00  4.83456000E-01
  1.45585000E-01  4.38000000E-02  6.26000000E-01  1.05819000E+05  1.58720000E+04
  3.61965000E+03  1.03080000E+03  3.39908000E+02  1.24538000E+02  1.24538000E+02
  4.95135000E+01  2.08056000E+01  6.58346000E+00  2.56468000E+00  5.59763000E-01
  1.83273000E-01  4.83000000E-02  5.89776000E+02  1.39849000E+02  4.51413000E+01
  1.68733000E+01  2.77152000E+00  6.74110000E+00  2.77152000E+00  1.02387000E+00
  3.81368000E-01  1.09437000E-01  7.50000000E-01  1.05819000E+05  1.58720000E+04
  3.61965000E+03  1.03080000E+03  3.39908000E+02  1.24538000E+02  1.24538000E+02
  4.95135000E+01  2.08056000E+01  6.58346000E+00  2.56468000E+00  5.59763000E-01
  1.83273000E-01  4.83000000E-02  5.89776000E+02  1.39849000E+02  4.51413000E+01
  1.68733000E+01  2.77152000E+00  6.74110000E+00  2.77152000E+00  1.02387000E+00
  3.81368000E-01  1.09437000E-01  7.50000000E-01  1.05819000E+05  1.58720000E+04
  3.61965000E+03  1.03080000E+03  3.39908000E+02  1.24538000E+02  1.24538000E+02
  4.95135000E+01  2.08056000E+01  6.58346000E+00  2.56468000E+00  5.59763000E-01
  1.83273000E-01  4.83000000E-02  5.89776000E+02  1.39849000E+02  4.51413000E+01
  1.68733000E+01  2.77152000E+00  6.74110000E+00  2.77152000E+00  1.02387000E+00
  3.81368000E-01  1.09437000E-01  7.50000000E-01  1.05819000E+05  1.58720000E+04
  3.61965000E+03  1.03080000E+03  3.39908000E+02  1.24538000E+02  1.24538000E+02
  4.95135000E+01  2.08056000E+01  6.58346000E+00  2.56468000E+00  5.59763000E-01
  1.83273000E-01  4.83000000E-02  5.89776000E+02  1.39849000E+02  4.51413000E+01
  1.68733000E+01  2.77152000E+00  6.74110000E+00  2.77152000E+00  1.02387000E+00
  3.81368000E-01  1.09437000E-01  7.50000000E-01  1.05819000E+05  1.58720000E+04
  3.61965000E+03  1.03080000E+03  3.39908000E+02  1.24538000E+02  1.24538000E+02
  4.95135000E+01  2.08056000E+01  6.58346000E+00  2.56468000E+00  5.59763000E-01
  1.83273000E-01  4.83000000E-02  5.89776000E+02  1.39849000E+02  4.51413000E+01
  1.68733000E+01  2.77152000E+00  6.74110000E+00  2.77152000E+00  1.02387000E+00
  3.81368000E-01  1.09437000E-01  7.50000000E-01  1.05819000E+05  1.58720000E+04
  3.61965000E+03  1.03080000E+03  3.39908000E+02  1.24538000E+02  1.24538000E+02
  4.95135000E+01  2.08056000E+01  6.58346000E+00  2.56468000E+00  5.59763000E-01
  1.83273000E-01  4.83000000E-02  5.89776000E+02  1.39849000E+02  4.51413000E+01
  1.68733000E+01  2.77152000E+00  6.74110000E+00  2.77152000E+00  1.02387000E+00
  3.81368000E-01  1.09437000E-01  7.50000000E-01
Contraction coefficients                   R   N=         228
  1.96665025E-03  1.52306019E-02  7.61269097E-02  2.60801033E-01  6.16462078E-01
  2.21006028E-01  1.14660081E-01  9.19999648E-01 -3.03068213E-03  1.00000000E+00
  1.00000000E+00  1.00000000E+00  1.00000000E+00  1.96665025E-03  1.52306019E-02
  7.61269097E-02  2.60801033E-01  6.16462078E-01  2.21006028E-01  1.14660081E-01
  9.19999648E-01 -3.03068213E-03  1.00000000E+00  1.00000000E+00  1.00000000E+00
  1.00000000E+00  1.96665025E-03  1.52306019E-02  7.61269097E-02  2.60801033E-01
  6.16462078E-01  2.21006028E-01  1.14660081E-01  9.19999648E-01 -3.03068213E-03
  1.00000000E+00  1.00000000E+00  1.00000000E+00  1.00000000E+00  1.96665025E-03
  1.52306019E-02  7.61269097E-02  2.60801033E-01  6.16462078E-01  2.21006028E-01
  1.14660081E-01  9.19999648E-01 -3.03068213E-03  1.00000000E+00  1.00000000E+00
  1.00000000E+00  1.00000000E+00  1.96665025E-03  1.52306019E-02  7.61269097E-02
  2.60801033E-01  6.16462078E-01  2.21006028E-01  1.14660081E-01  9.19999648E-01
 -3.03068213E-03  1.00000000E+00  1.00000000E+00  1.00000000E+00  1.00000000E+00
  1.96665025E-03  1.52306019E-02  7.61269097E-02  2.60801033E-01  6.16462078E-01
  2.21006028E-01  1.14660081E-01  9.19999648E-01 -3.03068213E-03  1.00000000E+00
  1.00000000E+00  1.00000000E+00  1.00000000E+00  7.38000247E-04  5.71800191E-03
  2.94950099E-02  1.17286039E-01  3.62949121E-01  5.84149195E-01  1.34176973E-01
  6.24249876E-01  2.91755942E-01  1.00000000E+00  1.00000000E+00  1.00000000E+00
  1.00000000E+00  1.00000000E+00  3.66556935E-03  2.83679194E-02  1.24756603E-01
  3.39654631E-01  7.47585963E-01 -1.57224381E+00  9.92388882E-01  1.00000000E+00
  1.00000000E+00  1.00000000E+00  1.00000000E+00  7.38000247E-04  5.71800191E-03
  2.94950099E-02  1.17286039E-01  3.62949121E-01  5.84149195E-01  1.34176973E-01
  6.24249876E-01  2.91755942E-01  1.00000000E+00  1.00000000E+00  1.00000000E+00
  1.00000000E+00  1.00000000E+00  3.66556935E-03  2.83679194E-02  1.24756603E-01
  3.39654631E-01  7.47585963E-01 -1.57224381E+00  9.92388882E-01  1.00000000E+00
  1.00000000E+00  1.00000000E+00  1.00000000E+00  7.38000247E-04  5.71800191E-03
  2.94950099E-02  1.17286039E-01  3.62949121E-01  5.84149195E-01  1.34176973E-01
  6.24249876E-01  2.91755942E-01  1.00000000E+00  1.00000000E+00  1.00000000E+00
  1.00000000E+00  1.00000000E+00  3.66556935E-03  2.83679194E-02  1.24756603E-01
  3.39654631E-01  7.47585963E-01 -1.57224381E+00  9.92388882E-01  1.00000000E+00
  1.00000000E+00  1.00000000E+00  1.00000000E+00  7.38000247E-04  5.71800191E-03
  2.94950099E-02  1.17286039E-01  3.62949121E-01  5.84149195E-01  1.34176973E-01
  6.24249876E-01  2.91755942E-01  1.00000000E+00  1.00000000E+00  1.00000000E+00
  1.00000000E+00  1.00000000E+00  3.66556935E-03  2.83679194E-02  1.24756603E-01
  3.39654631E-01  7.47585963E-01 -1.57224381E+00  9.92388882E-01  1.00000000E+00
  1.00000000E+00  1.00000000E+00  1.00000000E+00  7.38000247E-04  5.71800191E-03
  2.94950099E-02  1.17286039E-01  3.62949121E-01  5.84149195E-01  1.34176973E-01
  6.24249876E-01  2.91755942E-01  1.00000000E+00  1.00000000E+00  1.00000000E+00
  1.00000000E+00  1.00000000E+00  3.66556935E-03  2.83679194E-02  1.24756603E-01
  3.39654631E-01  7.47585963E-01 -1.57224381E+00  9.92388882E-01  1.00000000E+00
  1.00000000E+00  1.00000000E+00  1.00000000E+00  7.38000247E-04  5.71800191E-03
  2.94950099E-02  1.17286039E-01  3.62949121E-01  5.84149195E-01  1.34176973E-01
  6.24249876E-01  2.91755942E-01  1.00000000E+00  1.00000000E+00  1.00000000E+00
  1.00000000E+00  1.00000000E+00  3.66556935E-03  2.83679194E-02  1.24756603E-01
  3.39654631E-01  7.47585963E-01 -1.57224381E+00  9.92388882E-01  1.00000000E+00
  1.00000000E+00  1.00000000E+00  1.00000000E+00
P(S=P) Contraction coefficients            R   N=         228
  0.00000000E+00  0.00000000E+00  0.00000000E+00  0.00000000E+00  0.00000000E+00
  0.00000000E+00  4.02486927E-02  2.37593957E-01  8.15853851E-01  1.00000000E+00
  1.00000000E+00  1.00000000E+00  0.00000000E+00  0.00000000E+00  0.00000000E+00
  0.00000000E+00  0.00000000E+00  0.00000000E+00  0.00000000E+00  4.02486927E-02
  2.37593957E-01  8.15853851E-01  1.00000000E+00  1.00000000E+00  1.00000000E+00
  0.00000000E+00  0.00000000E+00  0.00000000E+00  0.00000000E+00  0.00000000E+00
  0.00000000E+00  0.00000000E+00  4.02486927E-02  2.37593957E-01  8.15853851E-01
  1.00000000E+00  1.00000000E+00  1.00000000E+00  0.00000000E+00  0.00000000E+00
  0.00000000E+00  0.00000000E+00  0.00000000E+00  0.00000000E+00  0.00000000E+00
  4.02486927E-02  2.37593957E-01  8.15853851E-01  1.00000000E+00  1.00000000E+00
  1.00000000E+00  0.00000000E+00  0.00000000E+00  0.00000000E+00  0.00000000E+00
  0.00000000E+00  0.00000000E+00  0.00000000E+00  4.02486927E-02  2.37593957E-01
  8.15853851E-01  1.00000000E+00  1.00000000E+00  1.00000000E+00  0.00000000E+00
  0.00000000E+00  0.00000000E+00  0.00000000E+00  0.00000000E+00  0.00000000E+00
  0.00000000E+00  4.02486927E-02  2.37593957E-01  8.15853851E-01  1.00000000E+00
  1.00000000E+00  1.00000000E+00  0.00000000E+00  0.00000000E+00  0.00000000E+00
  0.00000000E+00  0.00000000E+00  0.00000000E+00  0.00000000E+00  0.00000000E+00
  0.00000000E+00  0.00000000E+00  0.00000000E+00  0.00000000E+00  0.00000000E+00
  0.00000000E+00  1.00000000E+00  0.00000000E+00  0.00000000E+00  0.00000000E+00
  0.00000000E+00  0.00000000E+00  0.00000000E+00  0.00000000E+00  0.00000000E+00
  0.00000000E+00  0.00000000E+00  0.00000000E+00  0.00000000E+00  0.00000000E+00
  0.00000000E+00  0.00000000E+00  0.00000000E+00  0.00000000E+00  0.00000000E+00
  0.00000000E+00  0.00000000E+00  0.00000000E+00  0.00000000E+00  0.00000000E+00
  0.00000000E+00  1.00000000E+00  0.00000000E+00  0.00000000E+00  0.00000000E+00
  0.00000000E+00  0.00000000E+00  0.00000000E+00  0.00000000E+00  0.00000000E+00
  0.00000000E+00  0.00000000E+00  0.00000000E+00  0.00000000E+00  0.00000000E+00
  0.00000000E+00  0.00000000E+00  0.00000000E+00  0.00000000E+00  0.00000000E+00
  0.00000000E+00  0.00000000E+00  0.00000000E+00  0.00000000E+00  0.00000000E+00
  0.00000000E+00  1.00000000E+00  0.00000000E+00  0.00000000E+00  0.00000000E+00
  0.00000000E+00  0.00000000E+00  0.00000000E+00  0.00000000E+00  0.00000000E+00
  0.00000000E+00  0.00000000E+00  0.00000000E+00  0.00000000E+00  0.00000000E+00
  0.00000000E+00  0.00000000E+00  0.00000000E+00  0.00000000E+00  0.00000000E+00
  0.00000000E+00  0.00000000E+00  0.00000000E+00  0.00000000E+00  0.00000000E+00
  0.00000000E+00  1.00000000E+00  0.00000000E+00  0.00000000E+00  0.00000000E+00
  0.00000000E+00  0.00000000E+00  0.00000000E+00  0.00000000E+00  0.00000000E+00
  0.00000000E+00  0.00000000E+00  0.00000000E+00  0.00000000E+00  0.00000000E+00
  0.00000000E+00  0.00000000E+00  0.00000000E+00  0.00000000E+00  0.00000000E+00
  0.00000000E+00  0.00000000E+00  0.00000000E+00  0.00000000E+00  0.00000000E+00
  0.00000000E+00  1.00000000E+00  0.00000000E+00  0.00000000E+00  0.00000000E+00
  0.00000000E+00  0.00000000E+00  0.00000000E+00  0.00000000E+00  0.00000000E+00
  0.00000000E+00  0.00000000E+00  0.00000000E+00  0.00000000E+00  0.00000000E+00
  0.00000000E+00  0.00000000E+00  0.00000000E+00  0.00000000E+00  0.00000000E+00
  0.00000000E+00  0.00000000E+00  0.00000000E+00  0.00000000E+00  0.00000000E+00
  0.00000000E+00  1.00000000E+00  0.00000000E+00  0.00000000E+00  0.00000000E+00
  0.00000000E+00  0.00000000E+00  0.00000000E+00  0.00000000E+00  0.00000000E+00
  0.00000000E+00  0.00000000E+00  0.00000000E+00
Coordinates of each shell                  R   N=         342
 -2.28578368E+00  1.31976621E+00  9.86076132E-32 -2.28578368E+00  1.31976621E+00
  9.86076132E-32 -2.28578368E+00  1.31976621E+00  9.86076132E-32 -2.28578368E+00
  1.31976621E+00  9.86076132E-32 -2.28578368E+00  1.31976621E+00  9.86076132E-32
 -2.28578368E+00  1.31976621E+00  9.86076132E-32 -2.28578368E+00 -1.31976618E+00
  4.93038066E-32 -2.28578368E+00 -1.31976618E+00  4.93038066E-32 -2.28578368E+00
 -1.31976618E+00  4.93038066E-32 -2.28578368E+00 -1.31976618E+00  4.93038066E-32