Neutral Radical (removed 5) 123_                                        
Freq      UM062X                                                      6-311++G(d,p)       
Number of atoms                            I               11
Info1-9                                    I   N=           9
           8           6        1002           0           0         100
           6          18       -5502
Full Title                                 C   N=           3
Neutral Radical (removed 5) 123_    
Route                                      C   N=           5
# opt freq 6-311++g(d,p) guess=read geom=allcheck m062x     
Charge                                     I                0
Multiplicity                               I                2
Number of electrons                        I               89
Number of alpha electrons                  I               45
Number of beta electrons                   I               44
Number of basis functions                  I              236
Number of independent functions            I              236
Number of point charges in /Mol/           I                0
Number of translation vectors              I                0
Atomic numbers                             I   N=          11
           6           6           6           6           6           6
          17          17          17           1           1
Nuclear charges                            R   N=          11
  6.00000000E+00  6.00000000E+00  6.00000000E+00  6.00000000E+00  6.00000000E+00
  6.00000000E+00  1.70000000E+01  1.70000000E+01  1.70000000E+01  1.00000000E+00
  1.00000000E+00
Current cartesian coordinates              R   N=          33
  4.60936940E-01  5.93212417E-08  0.00000000E+00 -8.78832328E-01 -2.28183227E+00
  0.00000000E+00 -3.51478167E+00 -2.30482961E+00  0.00000000E+00 -4.68933411E+00
 -4.35499028E-08  0.00000000E+00 -3.51478167E+00  2.30482966E+00  0.00000000E+00
 -8.78832218E-01  2.28183237E+00  0.00000000E+00  7.02831403E-01  5.14423913E+00
  0.00000000E+00  3.72066051E+00  6.88097092E-07  0.00000000E+00  7.02831268E-01
 -5.14423984E+00  0.00000000E+00 -4.52687185E+00 -4.08222790E+00  0.00000000E+00
 -4.52687181E+00  4.08222726E+00  0.00000000E+00
Number of symbols in /Mol/                 I                0
Force Field                                I                0
Atom Types                                 C   N=          11
                                                            
                                                            
            
Int Atom Types                             I   N=          11
           0           0           0           0           0           0
           0           0           0           0           0
MM charges                                 R   N=          11
  0.00000000E+00  0.00000000E+00  0.00000000E+00  0.00000000E+00  0.00000000E+00
  0.00000000E+00  0.00000000E+00  0.00000000E+00  0.00000000E+00  0.00000000E+00
  0.00000000E+00
Integer atomic weights                     I   N=          11
          12          12          12          12          12          12
          35          35          35           1           1
Real atomic weights                        R   N=          11
  1.20000000E+01  1.20000000E+01  1.20000000E+01  1.20000000E+01  1.20000000E+01
  1.20000000E+01  3.49688527E+01  3.49688527E+01  3.49688527E+01  1.00782504E+00
  1.00782504E+00
Atom fragment info                         I   N=          11
           0           0           0           0           0           0
           0           0           0           0           0
Atom residue num                           I   N=          11
           0           0           0           0           0           0
           0           0           0           0           0
Nuclear spins                              I   N=          11
           0           0           0           0           0           0
           3           3           3           1           1
Nuclear ZEff                               R   N=          11
 -3.60000000E+00 -3.60000000E+00 -3.60000000E+00 -3.60000000E+00 -3.60000000E+00
 -3.60000000E+00 -1.42400000E+01 -1.42400000E+01 -1.42400000E+01 -1.00000000E+00
 -1.00000000E+00
Nuclear ZNuc                               R   N=          11
  6.00000000E+00  6.00000000E+00  6.00000000E+00  6.00000000E+00  6.00000000E+00
  6.00000000E+00  1.70000000E+01  1.70000000E+01  1.70000000E+01  1.00000000E+00
  1.00000000E+00
Nuclear QMom                               R   N=          11
  0.00000000E+00  0.00000000E+00  0.00000000E+00  0.00000000E+00  0.00000000E+00
  0.00000000E+00 -8.16500000E+00 -8.16500000E+00 -8.16500000E+00  0.00000000E+00
  0.00000000E+00
Nuclear GFac                               R   N=          11
  0.00000000E+00  0.00000000E+00  0.00000000E+00  0.00000000E+00  0.00000000E+00
  0.00000000E+00  8.21874000E-01  8.21874000E-01  8.21874000E-01  2.79284600E+00
  2.79284600E+00
MicOpt                                     I   N=          11
          -1          -1          -1          -1          -1          -1
          -1          -1          -1          -1          -1
Number of residues                         I                0
Number of secondary structures             I                0
Redundant internal dimensions              I   N=           4
          47          11          16          20
Redundant internal coordinate indices      I   N=         188
           1           2           0           0           1           6
           0           0           1           8           0           0
           2           3           0           0           2           9
           0           0           3           4           0           0
           3          10           0           0           4           5
           0           0           5           6           0           0
           5          11           0           0           6           7
           0           0           2           1           6           0
           2           1           8           0           6           1
           8           0           1           2           3           0
           1           2           9           0           3           2
           9           0           2           3           4           0
           2           3          10           0           4           3
          10           0           3           4           5           0
           4           5           6           0           4           5
          11           0           6           5          11           0
           1           6           5           0           1           6
           7           0           5           6           7           0
           6           1           2           3           6           1
           2           9           8           1           2           3
           8           1           2           9           2           1
           6           5           2           1           6           7
           8           1           6           5           8           1
           6           7           1           2           3           4
           1           2           3          10           9           2
           3           4           9           2           3          10
           2           3           4           5          10           3
           4           5           3           4           5           6
           3           4           5          11           4           5
           6           1           4           5           6           7
          11           5           6           1          11           5
           6           7
Redundant internal coordinates             R   N=          47
  2.64608021E+00  2.64608014E+00  3.25972357E+00  2.63604966E+00  3.27032672E+00
  2.58685383E+00  2.04535357E+00  2.58685396E+00  2.63604977E+00  2.04535295E+00
  3.27032602E+00  2.07976351E+00  2.10171111E+00  2.10171069E+00  2.11043519E+00
  2.10586840E+00  2.06688171E+00  2.03337402E+00  2.09715297E+00  2.15265831E+00
  2.19898874E+00  2.03337402E+00  2.15265819E+00  2.09715310E+00  2.11043514E+00
  2.10586831E+00  2.06688186E+00  0.00000000E+00  3.14159265E+00  3.14159265E+00
  0.00000000E+00  0.00000000E+00  3.14159265E+00  3.14159265E+00  0.00000000E+00
  0.00000000E+00  3.14159265E+00  3.14159265E+00  0.00000000E+00  0.00000000E+00
  3.14159265E+00  0.00000000E+00  3.14159265E+00  0.00000000E+00  3.14159265E+00
  3.14159265E+00  0.00000000E+00
ZRed-IntVec                                I   N=          47
           0           0           0           0           0           0
           0           0           0           0           0           0
           0           0           0           0           0           0
           0           0           0           0           0           0
           0           0           0           0           0           0
           0           0           0           0           0           0
           0           0           0           0           0           0
           0           0           0           0           0
ZRed-FPVec                                 R   N=          47
  0.00000000E+00  0.00000000E+00  0.00000000E+00  0.00000000E+00  0.00000000E+00
  0.00000000E+00  0.00000000E+00  0.00000000E+00  0.00000000E+00  0.00000000E+00
  0.00000000E+00  0.00000000E+00  0.00000000E+00  0.00000000E+00  0.00000000E+00
  0.00000000E+00  0.00000000E+00  0.00000000E+00  0.00000000E+00  0.00000000E+00
  0.00000000E+00  0.00000000E+00  0.00000000E+00  0.00000000E+00  0.00000000E+00
  0.00000000E+00  0.00000000E+00  0.00000000E+00  0.00000000E+00  0.00000000E+00
  0.00000000E+00  0.00000000E+00  0.00000000E+00  0.00000000E+00  0.00000000E+00
  0.00000000E+00  0.00000000E+00  0.00000000E+00  0.00000000E+00  0.00000000E+00
  0.00000000E+00  0.00000000E+00  0.00000000E+00  0.00000000E+00  0.00000000E+00
  0.00000000E+00  0.00000000E+00
ZRed-Constraint1                           R   N=          47
  2.64608021E+00  2.64608014E+00  3.25972357E+00  2.63604966E+00  3.27032672E+00
  2.58685383E+00  2.04535357E+00  2.58685396E+00  2.63604977E+00  2.04535295E+00
  3.27032602E+00  2.07976351E+00  2.10171111E+00  2.10171069E+00  2.11043519E+00
  2.10586840E+00  2.06688171E+00  2.03337402E+00  2.09715297E+00  2.15265831E+00
  2.19898874E+00  2.03337402E+00  2.15265819E+00  2.09715310E+00  2.11043514E+00
  2.10586831E+00  2.06688186E+00  0.00000000E+00  3.14159265E+00  3.14159265E+00
  0.00000000E+00  0.00000000E+00  3.14159265E+00  3.14159265E+00  0.00000000E+00
  0.00000000E+00  3.14159265E+00  3.14159265E+00  0.00000000E+00  0.00000000E+00
  3.14159265E+00  0.00000000E+00  3.14159265E+00  0.00000000E+00  3.14159265E+00
  3.14159265E+00  0.00000000E+00
ZRed-Constraint2                           R   N=          47
  2.67452471E+00  2.67452524E+00  3.19414244E+00  2.67111573E+00  3.19204607E+00
  2.58675258E+00  2.07381044E+00  2.58675680E+00  2.67112025E+00  2.07412235E+00
  3.19204616E+00  2.10446647E+00  2.08935939E+00  2.08935944E+00  2.09633623E+00
  2.11276569E+00  2.07408339E+00  2.00275003E+00  2.13159438E+00  2.14884090E+00
  2.26373443E+00  2.00274556E+00  2.14884272E+00  2.13159703E+00  2.09633790E+00
  2.11276435E+00  2.07408306E+00  0.00000000E+00  3.14159265E+00  3.14159265E+00
  0.00000000E+00  0.00000000E+00  3.14159265E+00  3.14159265E+00  0.00000000E+00
  0.00000000E+00  3.14159265E+00  3.14159265E+00  0.00000000E+00  0.00000000E+00
  3.14159265E+00  0.00000000E+00  3.14159265E+00  0.00000000E+00  3.14159265E+00
  3.14159265E+00  0.00000000E+00
SymInf integers                            I   N=          26
           1           2           1           1           1           1
           1          -1           0           0           0           0
           0           0           0           0           0           0
           0           0           0           0           0           0
           0           0
RotTr to input orientation                 R   N=          12
 -8.79429379E-01  4.76029377E-01 -0.00000000E+00 -4.76029377E-01 -8.79429379E-01
 -0.00000000E+00  0.00000000E+00  0.00000000E+00  1.00000000E+00 -5.56192658E+00
  1.04742192E-01 -9.97117178E-24
Number of contracted shells                I               85
Number of primitive shells                 I              167
Pure/Cartesian d shells                    I                0
Pure/Cartesian f shells                    I                0
Highest angular momentum                   I                2
Largest degree of contraction              I                6
Shell types                                I   N=          85
           0          -1          -1          -1          -1          -2
           0          -1          -1          -1          -1          -2
           0          -1          -1          -1          -1          -2
           0          -1          -1          -1          -1          -2
           0          -1          -1          -1          -1          -2
           0          -1          -1          -1          -1          -2
           0           0           0           0           0           0
          -1           1           1           1           1           1
          -2           0           0           0           0           0
           0          -1           1           1           1           1
           1          -2           0           0           0           0
           0           0          -1           1           1           1
           1           1          -2           0           0           0
           0           1           0           0           0           0
           1
Number of primitives per shell             I   N=          85
           6           3           1           1           1           1
           6           3           1           1           1           1
           6           3           1           1           1           1
           6           3           1           1           1           1
           6           3           1           1           1           1
           6           3           1           1           1           1
           6           3           1           1           1           1
           1           5           2           1           1           1
           1           6           3           1           1           1
           1           1           5           2           1           1
           1           1           6           3           1           1
           1           1           1           5           2           1
           1           1           1           3           1           1
           1           1           3           1           1           1
           1
Shell to atom map                          I   N=          85
           1           1           1           1           1           1
           2           2           2           2           2           2
           3           3           3           3           3           3
           4           4           4           4           4           4
           5           5           5           5           5           5
           6           6           6           6           6           6
           7           7           7           7           7           7
           7           7           7           7           7           7
           7           8           8           8           8           8
           8           8           8           8           8           8
           8           8           9           9           9           9
           9           9           9           9           9           9
           9           9           9          10          10          10
          10          10          11          11          11          11
          11
Primitive exponents                        R   N=         167
  4.56324000E+03  6.82024000E+02  1.54973000E+02  4.44553000E+01  1.30290000E+01
  1.82773000E+00  2.09642000E+01  4.80331000E+00  1.45933000E+00  4.83456000E-01
  1.45585000E-01  4.38000000E-02  6.26000000E-01  4.56324000E+03  6.82024000E+02
  1.54973000E+02  4.44553000E+01  1.30290000E+01  1.82773000E+00  2.09642000E+01
  4.80331000E+00  1.45933000E+00  4.83456000E-01  1.45585000E-01  4.38000000E-02
  6.26000000E-01  4.56324000E+03  6.82024000E+02  1.54973000E+02  4.44553000E+01
  1.30290000E+01  1.82773000E+00  2.09642000E+01  4.80331000E+00  1.45933000E+00
  4.83456000E-01  1.45585000E-01  4.38000000E-02  6.26000000E-01  4.56324000E+03
  6.82024000E+02  1.54973000E+02  4.44553000E+01  1.30290000E+01  1.82773000E+00
  2.09642000E+01  4.80331000E+00  1.45933000E+00  4.83456000E-01  1.45585000E-01
  4.38000000E-02  6.26000000E-01  4.56324000E+03  6.82024000E+02  1.54973000E+02
  4.44553000E+01  1.30290000E+01  1.82773000E+00  2.09642000E+01  4.80331000E+00
  1.45933000E+00  4.83456000E-01  1.45585000E-01  4.38000000E-02  6.26000000E-01
  4.56324000E+03  6.82024000E+02  1.54973000E+02  4.44553000E+01  1.30290000E+01
  1.82773000E+00  2.09642000E+01  4.80331000E+00  1.45933000E+00  4.83456000E-01
  1.45585000E-01  4.38000000E-02  6.26000000E-01  1.05819000E+05  1.58720000E+04
  3.61965000E+03  1.03080000E+03  3.39908000E+02  1.24538000E+02  1.24538000E+02
  4.95135000E+01  2.08056000E+01  6.58346000E+00  2.56468000E+00  5.59763000E-01
  1.83273000E-01  4.83000000E-02  5.89776000E+02  1.39849000E+02  4.51413000E+01
  1.68733000E+01  2.77152000E+00  6.74110000E+00  2.77152000E+00  1.02387000E+00
  3.81368000E-01  1.09437000E-01  7.50000000E-01  1.05819000E+05  1.58720000E+04
  3.61965000E+03  1.03080000E+03  3.39908000E+02  1.24538000E+02  1.24538000E+02
  4.95135000E+01  2.08056000E+01  6.58346000E+00  2.56468000E+00  5.59763000E-01
  1.83273000E-01  4.83000000E-02  5.89776000E+02  1.39849000E+02  4.51413000E+01
  1.68733000E+01  2.77152000E+00  6.74110000E+00  2.77152000E+00  1.02387000E+00
  3.81368000E-01  1.09437000E-01  7.50000000E-01  1.05819000E+05  1.58720000E+04
  3.61965000E+03  1.03080000E+03  3.39908000E+02  1.24538000E+02  1.24538000E+02
  4.95135000E+01  2.08056000E+01  6.58346000E+00  2.56468000E+00  5.59763000E-01
  1.83273000E-01  4.83000000E-02  5.89776000E+02  1.39849000E+02  4.51413000E+01
  1.68733000E+01  2.77152000E+00  6.74110000E+00  2.77152000E+00  1.02387000E+00
  3.81368000E-01  1.09437000E-01  7.50000000E-01  3.38650000E+01  5.09479000E+00
  1.15879000E+00  3.25840000E-01  1.02741000E-01  3.60000000E-02  7.50000000E-01
  3.38650000E+01  5.09479000E+00  1.15879000E+00  3.25840000E-01  1.02741000E-01
  3.60000000E-02  7.50000000E-01
Contraction coefficients                   R   N=         167
  1.96665025E-03  1.52306019E-02  7.61269097E-02  2.60801033E-01  6.16462078E-01
  2.21006028E-01  1.14660081E-01  9.19999648E-01 -3.03068213E-03  1.00000000E+00
  1.00000000E+00  1.00000000E+00  1.00000000E+00  1.96665025E-03  1.52306019E-02
  7.61269097E-02  2.60801033E-01  6.16462078E-01  2.21006028E-01  1.14660081E-01
  9.19999648E-01 -3.03068213E-03  1.00000000E+00  1.00000000E+00  1.00000000E+00
  1.00000000E+00  1.96665025E-03  1.52306019E-02  7.61269097E-02  2.60801033E-01
  6.16462078E-01  2.21006028E-01  1.14660081E-01  9.19999648E-01 -3.03068213E-03
  1.00000000E+00  1.00000000E+00  1.00000000E+00  1.00000000E+00  1.96665025E-03
  1.52306019E-02  7.61269097E-02  2.60801033E-01  6.16462078E-01  2.21006028E-01
  1.14660081E-01  9.19999648E-01 -3.03068213E-03  1.00000000E+00  1.00000000E+00
  1.00000000E+00  1.00000000E+00  1.96665025E-03  1.52306019E-02  7.61269097E-02
  2.60801033E-01  6.16462078E-01  2.21006028E-01  1.14660081E-01  9.19999648E-01
 -3.03068213E-03  1.00000000E+00  1.00000000E+00  1.00000000E+00  1.00000000E+00
  1.96665025E-03  1.52306019E-02  7.61269097E-02  2.60801033E-01  6.16462078E-01
  2.21006028E-01  1.14660081E-01  9.19999648E-01 -3.03068213E-03  1.00000000E+00
  1.00000000E+00  1.00000000E+00  1.00000000E+00  7.38000247E-04  5.71800191E-03
  2.94950099E-02  1.17286039E-01  3.62949121E-01  5.84149195E-01  1.34176973E-01
  6.24249876E-01  2.91755942E-01  1.00000000E+00  1.00000000E+00  1.00000000E+00
  1.00000000E+00  1.00000000E+00  3.66556935E-03  2.83679194E-02  1.24756603E-01
  3.39654631E-01  7.47585963E-01 -1.57224381E+00  9.92388882E-01  1.00000000E+00
  1.00000000E+00  1.00000000E+00  1.00000000E+00  7.38000247E-04  5.71800191E-03
  2.94950099E-02  1.17286039E-01  3.62949121E-01  5.84149195E-01  1.34176973E-01
  6.24249876E-01  2.91755942E-01  1.00000000E+00  1.00000000E+00  1.00000000E+00
  1.00000000E+00  1.00000000E+00  3.66556935E-03  2.83679194E-02  1.24756603E-01
  3.39654631E-01  7.47585963E-01 -1.57224381E+00  9.92388882E-01  1.00000000E+00
  1.00000000E+00  1.00000000E+00  1.00000000E+00  7.38000247E-04  5.71800191E-03
  2.94950099E-02  1.17286039E-01  3.62949121E-01  5.84149195E-01  1.34176973E-01
  6.24249876E-01  2.91755942E-01  1.00000000E+00  1.00000000E+00  1.00000000E+00
  1.00000000E+00  1.00000000E+00  3.66556935E-03  2.83679194E-02  1.24756603E-01
  3.39654631E-01  7.47585963E-01 -1.57224381E+00  9.92388882E-01  1.00000000E+00
  1.00000000E+00  1.00000000E+00  1.00000000E+00  2.54938145E-02  1.90373109E-01
  8.52161486E-01  1.00000000E+00  1.00000000E+00  1.00000000E+00  1.00000000E+00
  2.54938145E-02  1.90373109E-01  8.52161486E-01  1.00000000E+00  1.00000000E+00
  1.00000000E+00  1.00000000E+00
P(S=P) Contraction coefficients            R   N=         167
  0.00000000E+00  0.00000000E+00  0.00000000E+00  0.00000000E+00  0.00000000E+00
  0.00000000E+00  4.02486927E-02  2.37593957E-01  8.15853851E-01  1.00000000E+00
  1.00000000E+00  1.00000000E+00  0.00000000E+00  0.00000000E+00  0.00000000E+00
  0.00000000E+00  0.00000000E+00  0.00000000E+00  0.00000000E+00  4.02486927E-02
  2.37593957E-01  8.15853851E-01  1.00000000E+00  1.00000000E+00  1.00000000E+00
  0.00000000E+00  0.00000000E+00  0.00000000E+00  0.00000000E+00  0.00000000E+00
  0.00000000E+00  0.00000000E+00  4.02486927E-02  2.37593957E-01  8.15853851E-01
  1.00000000E+00  1.00000000E+00  1.00000000E+00  0.00000000E+00  0.00000000E+00
  0.00000000E+00  0.00000000E+00  0.00000000E+00  0.00000000E+00  0.00000000E+00
  4.02486927E-02  2.37593957E-01  8.15853851E-01  1.00000000E+00  1.00000000E+00
  1.00000000E+00  0.00000000E+00  0.00000000E+00  0.00000000E+00  0.00000000E+00
  0.00000000E+00  0.00000000E+00  0.00000000E+00  4.02486927E-02  2.37593957E-01
  8.15853851E-01  1.00000000E+00  1.00000000E+00  1.00000000E+00  0.00000000E+00
  0.00000000E+00  0.00000000E+00  0.00000000E+00  0.00000000E+00  0.00000000E+00
  0.00000000E+00  4.02486927E-02  2.37593957E-01  8.15853851E-01  1.00000000E+00
  1.00000000E+00  1.00000000E+00  0.00000000E+00  0.00000000E+00  0.00000000E+00
  0.00000000E+00  0.00000000E+00  0.00000000E+00  0.00000000E+00  0.00000000E+00
  0.00000000E+00  0.00000000E+00  0.00000000E+00  0.00000000E+00  0.00000000E+00
  0.00000000E+00  1.00000000E+00  0.00000000E+00  0.00000000E+00  0.00000000E+00
  0.00000000E+00  0.00000000E+00  0.00000000E+00  0.00000000E+00  0.00000000E+00
  0.00000000E+00  0.00000000E+00  0.00000000E+00  0.00000000E+00  0.00000000E+00
  0.00000000E+00  0.00000000E+00  0.00000000E+00  0.00000000E+00  0.00000000E+00
  0.00000000E+00  0.00000000E+00  0.00000000E+00  0.00000000E+00  0.00000000E+00
  0.00000000E+00  1.00000000E+00  0.00000000E+00  0.00000000E+00  0.00000000E+00
  0.00000000E+00  0.00000000E+00  0.00000000E+00  0.00000000E+00  0.00000000E+00
  0.00000000E+00  0.00000000E+00  0.00000000E+00  0.00000000E+00  0.00000000E+00
  0.00000000E+00  0.00000000E+00  0.00000000E+00  0.00000000E+00  0.00000000E+00
  0.00000000E+00  0.00000000E+00  0.00000000E+00  0.00000000E+00  0.00000000E+00
  0.00000000E+00  1.00000000E+00  0.00000000E+00  0.00000000E+00  0.00000000E+00
  0.00000000E+00  0.00000000E+00  0.00000000E+00  0.00000000E+00  0.00000000E+00
  0.00000000E+00  0.00000000E+00  0.00000000E+00  0.00000000E+00  0.00000000E+00
  0.00000000E+00  0.00000000E+00  0.00000000E+00  0.00000000E+00  0.00000000E+00
  0.00000000E+00  0.00000000E+00  0.00000000E+00  0.00000000E+00  0.00000000E+00
  0.00000000E+00  0.00000000E+00
Coordinates of each shell                  R   N=         255
  4.60936940E-01  5.93212417E-08  0.00000000E+00  4.60936940E-01  5.93212417E-08
  0.00000000E+00  4.60936940E-01  5.93212417E-08  0.00000000E+00  4.60936940E-01
  5.93212417E-08  0.00000000E+00  4.60936940E-01  5.93212417E-08  0.00000000E+00
  4.60936940E-01  5.93212417E-08  0.00000000E+00 -8.78832328E-01 -2.28183227E+00
  0.00000000E+00 -8.78832328E-01 -2.28183227E+00  0.00000000E+00 -8.78832328E-01
 -2.28183227E+00  0.00000000E+00 -8.78832328E-01 -2.28183227E+00  0.00000000E+00
 -8.78832328E-01 -2.28183227E+00  0.00000000E+00 -8.78832328E-01 -2.28183227E+00
  0.00000000E+00 -3.51478167E+00 -2.30482961E+00  0.00000000E+00 -3.51478167E+00
 -2.30482961E+00  0.00000000E+00 -3.51478167E+00 -2.30482961E+00  0.00000000E+00
 -3.51478167E+00 -2.30482961E+00  0.00000000E+00 -3.51478167E+00 -2.30482961E+00
  0.00000000E+00 -3.51478167E+00 -2.30482961E+00  0.00000000E+00 -4.68933411E+00
 -4.35499028E-08  0.00000000E+00 -4.68933411E+00 -4.35499028E-08  0.00000000E+00
 -4.68933411E+00 -4.35499028E-08  0.00000000E+00 -4.68933411E+00 -4.35499028E-08
  0.00000000E+00 -4.68933411E+00 -4.35499028E-08  0.00000000E+00 -4.68933411E+00
 -4.35499028E-08  0.00000000E+00 -3.51478167E+00  2.30482966E+00  0.00000000E+00
 -3.51478167E+00  2.30482966E+00  0.00000000E+00 -3.51478167E+00  2.30482966E+00
  0.00000000E+00 -3.51478167E+00  2.30482966E+00  0.00000000E+00 -3.51478167E+00
  2.30482966E+00  0.00000000E+00 -3.51478167E+00  2.30482966E+00  0.00000000E+00
 -8.78832218E-01  2.28183237E+00  0.00000000E+00 -8.78832218E-01  2.28183237E+00
  0.00000000E+00 -8.78832218E-01  2.28183237E+00  0.00000000E+00 -8.78832218E-01
  2.28183237E+00  0.00000000E+00 -8.78832218E-01  2.28183237E+00  0.00000000E+00
 -8.78832218E-01  2.28183237E+00  0.00000000E+00  7.02831403E-01  5.14423913E+00
  0.00000000E+00  7.02831403E-01  5.14423913E+00  0.00000000E+00  7.02831403E-01
  5.14423913E+00  0.00000000E+00  7.02831403E-01  5.14423913E+00  0.00000000E+00
  7.02831403E-01  5.14423913E+00  0.00000000E+00  7.02831403E-01  5.14423913E+00
  0.00000000E+00  7.02831403E-01  5.14423913E+00  0.00000000E+00  7.02831403E-01
  5.14423913E+00  0.00000000E+00  7.02831403E-01  5.14423913E+00  0.00000000E+00
  7.02831403E-01  5.14423913E+00  0.00000000E+00  7.02831403E-01  5.14423913E+00
  0.00000000E+00  7.02831403E-01  5.14423913E+00  0.00000000E+00  7.02831403E-01
  5.14423913E+00  0.00000000E+00  3.72066051E+00  6.88097092E-07  0.00000000E+00
  3.72066051E+00  6.88097092E-07  0.00000000E+00  3.72066051E+00  6.88097092E-07
  0.00000000E+00  3.72066051E+00  6.88097092E-07  0.00000000E+00  3.72066051E+00
  6.88097092E-07  0.00000000E+00  3.72066051E+00  6.88097092E-07  0.00000000E+00
  3.72066051E+00  6.88097092E-07  0.00000000E+00  3.72066051E+00  6.88097092E-07
  0.00000000E+00  3.72066051E+00  6.88097092E-07  0.00000000E+00  3.72066051E+00
  6.88097092E-07  0.00000000E+00  3.72066051E+00  6.88097092E-07  0.00000000E+00
  3.72066051E+00  6.88097092E-07  0.00000000E+00  3.72066051E+00  6.88097092E-07
  0.00000000E+00  7.02831268E-01 -5.14423984E+00  0.00000000E+00  7.02831268E-01
 -5.14423984E+00  0.00000000E+00  7.02831268E-01 -5.14423984E+00  0.00000000E+00
  7.02831268E-01 -5.14423984E+00  0.00000000E+00  7.02831268E-01 -5.14423984E+00
  0.00000000E+00  7.02831268E-01 -5.14423984E+00  0.00000000E+00  7.02831268E-01
 -5.14423984E+00  0.00000000E+00  7.02831268E-01 -5.14423984E+00  0.00000000E+00
  7.02831268E-01 -5.14423984E+00  0.00000000E+00  7.02831268E-01 -5.14423984E+00
  0.00000000E+00  7.02831268E-01 -5.14423984E+00  0.00000000E+00  7.02831268E-01
 -5.14423984E+00  0.00000000E+00  7.02831268E-01 -5.14423984E+00  0.00000000E+00
 -4.52687185E+00 -4.08222790E+00  0.00000000E+00 -4.52687185E+00 -4.08222790E+00
  0.00000000E+00 -4.52687185E+00 -4.08222790E+00  0.00000000E+00 -4.52687185E+00
 -4.08222790E+00  0.00000000E+00 -4.52687185E+00 -4.08222790E+00  0.00000000E+00
 -4.52687181E+00  4.08222726E+00  0.00000000E+00 -4.52687181E+00  4.08222726E+00
  0.00000000E+00 -4.52687181E+00  4.08222726E+00  0.00000000E+00 -4.52687181E+00
  4.08222726E+00  0.00000000E+00 -4.52687181E+00  4.08222726E+00  0.00000000E+00
Num ILSW                                   I              100
ILSW                                       I   N=         100
           1           0           0           0           2           0
           0           0           0           0        4336          -1
           5           0           0           0           2           0
           0           0           1           0           1           0
           1           0           0           0           0           0
           0           0      100000           0          -1           0
           0           0           0           0           0           0
           0           0           0           1           0           0
           0 -2000000000           1           0           0           0
           0           0           4          52           0           0
           0           0          55           0           0           0
           0           0           0           0           0           1
           0           0           0           0           0           0
           0           0           0           0           0           0
           0           0           0           0           0           0
           0           0           0           0           0           0
           0           0           0           0
Num RLSW                                   I               52
RLSW                                       R   N=          52