3-Chloro-Benzene Anion Radical (123)                                    
Freq      UM062X                                                      6-311++G(d,p)       
Number of atoms                            I               12
Info1-9                                    I   N=           9
           8           6        1002           0           0         100
           6          18       -5502
Full Title                                 C   N=           3
3-Chloro-Benzene Anion Radical (123)
Route                                      C   N=           5
# opt freq 6-311++g(d,p) guess=read geom=allcheck m062x     
Charge                                     I               -1
Multiplicity                               I                2
Number of electrons                        I               91
Number of alpha electrons                  I               46
Number of beta electrons                   I               45
Number of basis functions                  I              243
Number of independent functions            I              242
Number of point charges in /Mol/           I                0
Number of translation vectors              I                0
Atomic numbers                             I   N=          12
           6           6           6           6           6           6
          17          17          17           1           1           1
Nuclear charges                            R   N=          12
  6.00000000E+00  6.00000000E+00  6.00000000E+00  6.00000000E+00  6.00000000E+00
  6.00000000E+00  1.70000000E+01  1.70000000E+01  1.70000000E+01  1.00000000E+00
  1.00000000E+00  1.00000000E+00
Current cartesian coordinates              R   N=          36
  3.06391318E-01  1.78673231E-06  6.09978125E-33 -1.04731791E+00 -2.21651547E+00
 -4.93038066E-32 -3.68016332E+00 -2.27890964E+00 -9.86076132E-32 -4.99203164E+00
  1.88693415E-06  5.96368721E-32 -3.68016332E+00  2.27891304E+00  9.86076132E-32
 -1.04731751E+00  2.21651939E+00  0.00000000E+00  5.34418212E-01  5.16898477E+00
  0.00000000E+00  4.88570656E+00 -6.15742386E-06 -1.38999480E-31  5.34416787E-01
 -5.16898280E+00 -9.86076132E-32 -4.67139374E+00 -4.07139165E+00  0.00000000E+00
 -7.04080571E+00  1.74923714E-06  1.79310849E-31 -4.67139276E+00  4.07139514E+00
 -9.86076132E-32
Number of symbols in /Mol/                 I                0
Force Field                                I                0
Atom Types                                 C   N=          12
                                                            
                                                            
                        
Int Atom Types                             I   N=          12
           0           0           0           0           0           0
           0           0           0           0           0           0
MM charges                                 R   N=          12
  0.00000000E+00  0.00000000E+00  0.00000000E+00  0.00000000E+00  0.00000000E+00
  0.00000000E+00  0.00000000E+00  0.00000000E+00  0.00000000E+00  0.00000000E+00
  0.00000000E+00  0.00000000E+00
Integer atomic weights                     I   N=          12
          12          12          12          12          12          12
          35          35          35           1           1           1
Real atomic weights                        R   N=          12
  1.20000000E+01  1.20000000E+01  1.20000000E+01  1.20000000E+01  1.20000000E+01
  1.20000000E+01  3.49688527E+01  3.49688527E+01  3.49688527E+01  1.00782504E+00
  1.00782504E+00  1.00782504E+00
Atom fragment info                         I   N=          12
           0           0           0           0           0           0
           0           0           0           0           0           0
Atom residue num                           I   N=          12
           0           0           0           0           0           0
           0           0           0           0           0           0
Nuclear spins                              I   N=          12
           0           0           0           0           0           0
           3           3           3           1           1           1
Nuclear ZEff                               R   N=          12
 -3.60000000E+00 -3.60000000E+00 -3.60000000E+00 -3.60000000E+00 -3.60000000E+00
 -3.60000000E+00 -1.42400000E+01 -1.42400000E+01 -1.42400000E+01 -1.00000000E+00
 -1.00000000E+00 -1.00000000E+00
Nuclear ZNuc                               R   N=          12
  6.00000000E+00  6.00000000E+00  6.00000000E+00  6.00000000E+00  6.00000000E+00
  6.00000000E+00  1.70000000E+01  1.70000000E+01  1.70000000E+01  1.00000000E+00
  1.00000000E+00  1.00000000E+00
Nuclear QMom                               R   N=          12
  0.00000000E+00  0.00000000E+00  0.00000000E+00  0.00000000E+00  0.00000000E+00
  0.00000000E+00 -8.16500000E+00 -8.16500000E+00 -8.16500000E+00  0.00000000E+00
  0.00000000E+00  0.00000000E+00
Nuclear GFac                               R   N=          12
  0.00000000E+00  0.00000000E+00  0.00000000E+00  0.00000000E+00  0.00000000E+00
  0.00000000E+00  8.21874000E-01  8.21874000E-01  8.21874000E-01  2.79284600E+00
  2.79284600E+00  2.79284600E+00
MicOpt                                     I   N=          12
          -1          -1          -1          -1          -1          -1
          -1          -1          -1          -1          -1          -1
Number of residues                         I                0
Number of secondary structures             I                0
Redundant internal dimensions              I   N=           4
          54          12          18          24
Redundant internal coordinate indices      I   N=         216
           1           2           0           0           1           6
           0           0           1           8           0           0
           2           3           0           0           2           9
           0           0           3           4           0           0
           3          10           0           0           4           5
           0           0           4          11           0           0
           5           6           0           0           5          12
           0           0           6           7           0           0
           2           1           6           0           2           1
           8           0           6           1           8           0
           1           2           3           0           1           2
           9           0           3           2           9           0
           2           3           4           0           2           3
          10           0           4           3          10           0
           3           4           5           0           3           4
          11           0           5           4          11           0
           4           5           6           0           4           5
          12           0           6           5          12           0
           1           6           5           0           1           6
           7           0           5           6           7           0
           6           1           2           3           6           1
           2           9           8           1           2           3
           8           1           2           9           2           1
           6           5           2           1           6           7
           8           1           6           5           8           1
           6           7           1           2           3           4
           1           2           3          10           9           2
           3           4           9           2           3          10
           2           3           4           5           2           3
           4          11          10           3           4           5
          10           3           4          11           3           4
           5           6           3           4           5          12
          11           4           5           6          11           4
           5          12           4           5           6           1
           4           5           6           7          12           5
           6           1          12           5           6           7
Redundant internal coordinates             R   N=          54
  2.59720570E+00  2.59720578E+00  4.57931524E+00  2.63358463E+00  3.34946980E+00
  2.62953156E+00  2.04829917E+00  2.62953124E+00  2.04877406E+00  2.63358502E+00
  2.04829877E+00  3.34946857E+00  2.04503883E+00  2.11907160E+00  2.11907487E+00
  2.14276728E+00  2.10149179E+00  2.03892624E+00  2.06942927E+00  2.09962864E+00
  2.11412739E+00  2.09693881E+00  2.09312315E+00  2.09312335E+00  2.06942954E+00
  2.11412776E+00  2.09962800E+00  2.14276688E+00  2.10149145E+00  2.03892698E+00
 -0.00000000E+00  3.14159265E+00  3.14159265E+00  0.00000000E+00  0.00000000E+00
  3.14159265E+00  3.14159265E+00 -0.00000000E+00  0.00000000E+00  3.14159265E+00
  3.14159265E+00 -0.00000000E+00 -0.00000000E+00  3.14159265E+00  3.14159265E+00
 -0.00000000E+00 -0.00000000E+00  3.14159265E+00  3.14159265E+00 -0.00000000E+00
 -0.00000000E+00  3.14159265E+00  3.14159265E+00  0.00000000E+00
ZRed-IntVec                                I   N=          54
           0           0           0           0           0           0
           0           0           0           0           0           0
           0           0           0           0           0           0
           0           0           0           0           0           0
           0           0           0           0           0           0
           0           0           0           0           0           0
           0           0           0           0           0           0
           0           0           0           0           0           0
           0           0           0           0           0           0
ZRed-FPVec                                 R   N=          54
  0.00000000E+00  0.00000000E+00  0.00000000E+00  0.00000000E+00  0.00000000E+00
  0.00000000E+00  0.00000000E+00  0.00000000E+00  0.00000000E+00  0.00000000E+00
  0.00000000E+00  0.00000000E+00  0.00000000E+00  0.00000000E+00  0.00000000E+00
  0.00000000E+00  0.00000000E+00  0.00000000E+00  0.00000000E+00  0.00000000E+00
  0.00000000E+00  0.00000000E+00  0.00000000E+00  0.00000000E+00  0.00000000E+00
  0.00000000E+00  0.00000000E+00  0.00000000E+00  0.00000000E+00  0.00000000E+00
  0.00000000E+00  0.00000000E+00  0.00000000E+00  0.00000000E+00  0.00000000E+00
  0.00000000E+00  0.00000000E+00  0.00000000E+00  0.00000000E+00  0.00000000E+00
  0.00000000E+00  0.00000000E+00  0.00000000E+00  0.00000000E+00  0.00000000E+00
  0.00000000E+00  0.00000000E+00  0.00000000E+00  0.00000000E+00  0.00000000E+00
  0.00000000E+00  0.00000000E+00  0.00000000E+00  0.00000000E+00
ZRed-Constraint1                           R   N=          54
  2.59720570E+00  2.59720578E+00  4.57931524E+00  2.63358463E+00  3.34946980E+00
  2.62953156E+00  2.04829917E+00  2.62953124E+00  2.04877406E+00  2.63358502E+00
  2.04829877E+00  3.34946857E+00  2.04503883E+00  2.11907160E+00  2.11907487E+00
  2.14276728E+00  2.10149179E+00  2.03892624E+00  2.06942927E+00  2.09962864E+00
  2.11412739E+00  2.09693881E+00  2.09312315E+00  2.09312335E+00  2.06942954E+00
  2.11412776E+00  2.09962800E+00  2.14276688E+00  2.10149145E+00  2.03892698E+00
 -0.00000000E+00  3.14159265E+00  3.14159265E+00  0.00000000E+00  0.00000000E+00
  3.14159265E+00  3.14159265E+00  0.00000000E+00  0.00000000E+00  3.14159265E+00
  3.14159265E+00 -0.00000000E+00 -0.00000000E+00  3.14159265E+00  3.14159265E+00
  0.00000000E+00  0.00000000E+00  3.14159265E+00  3.14159265E+00  0.00000000E+00
 -0.00000000E+00  3.14159265E+00  3.14159265E+00  0.00000000E+00
ZRed-Constraint2                           R   N=          54
  2.64337125E+00  2.64337198E+00  3.22833968E+00  2.64985345E+00  3.39588157E+00
  2.64249416E+00  2.07437730E+00  2.64249946E+00  2.07619583E+00  2.64985903E+00
  2.07476705E+00  3.39588165E+00  2.10286851E+00  2.09015833E+00  2.09015847E+00
  2.08877328E+00  2.16263115E+00  2.03178088E+00  2.09375748E+00  2.09201845E+00
  2.09740938E+00  2.09844435E+00  2.09237046E+00  2.09237050E+00  2.09375065E+00
  2.09741205E+00  2.09202260E+00  2.08877635E+00  2.16262923E+00  2.03177973E+00
 -0.00000000E+00  3.14159265E+00  3.14159265E+00  0.00000000E+00  0.00000000E+00
  3.14159265E+00  3.14159265E+00  0.00000000E+00  0.00000000E+00  3.14159265E+00
  3.14159265E+00 -0.00000000E+00 -0.00000000E+00  3.14159265E+00  3.14159265E+00
  0.00000000E+00  0.00000000E+00  3.14159265E+00  3.14159265E+00 -0.00000000E+00
 -0.00000000E+00  3.14159265E+00  3.14159265E+00 -0.00000000E+00
SymInf integers                            I   N=          26
           1           2           1           1           1           1
           1          -1           0           0           0           0
           0           0           0           0           0           0
           0           0           0           0           0           0
           0           0
RotTr to input orientation                 R   N=          12
 -8.79429246E-01  4.76029622E-01  2.89868732E-22 -4.76029622E-01 -8.79429246E-01
 -1.22464680E-16 -5.82965603E-17 -1.07699159E-16  1.00000000E+00 -5.52883040E+00
  8.68282142E-02  7.87651944E-21
Number of contracted shells                I               90
Number of primitive shells                 I              174
Pure/Cartesian d shells                    I                0
Pure/Cartesian f shells                    I                0
Highest angular momentum                   I                2
Largest degree of contraction              I                6
Shell types                                I   N=          90
           0          -1          -1          -1          -1          -2
           0          -1          -1          -1          -1          -2
           0          -1          -1          -1          -1          -2
           0          -1          -1          -1          -1          -2
           0          -1          -1          -1          -1          -2
           0          -1          -1          -1          -1          -2
           0           0           0           0           0           0
          -1           1           1           1           1           1
          -2           0           0           0           0           0
           0          -1           1           1           1           1
           1          -2           0           0           0           0
           0           0          -1           1           1           1
           1           1          -2           0           0           0
           0           1           0           0           0           0
           1           0           0           0           0           1
Number of primitives per shell             I   N=          90
           6           3           1           1           1           1
           6           3           1           1           1           1
           6           3           1           1           1           1
           6           3           1           1           1           1
           6           3           1           1           1           1
           6           3           1           1           1           1
           6           3           1           1           1           1
           1           5           2           1           1           1
           1           6           3           1           1           1
           1           1           5           2           1           1
           1           1           6           3           1           1
           1           1           1           5           2           1
           1           1           1           3           1           1
           1           1           3           1           1           1
           1           3           1           1           1           1
Shell to atom map                          I   N=          90
           1           1           1           1           1           1
           2           2           2           2           2           2
           3           3           3           3           3           3
           4           4           4           4           4           4
           5           5           5           5           5           5
           6           6           6           6           6           6
           7           7           7           7           7           7
           7           7           7           7           7           7
           7           8           8           8           8           8
           8           8           8           8           8           8
           8           8           9           9           9           9
           9           9           9           9           9           9
           9           9           9          10          10          10
          10          10          11          11          11          11
          11          12          12          12          12          12
Primitive exponents                        R   N=         174
  4.56324000E+03  6.82024000E+02  1.54973000E+02  4.44553000E+01  1.30290000E+01
  1.82773000E+00  2.09642000E+01  4.80331000E+00  1.45933000E+00  4.83456000E-01
  1.45585000E-01  4.38000000E-02  6.26000000E-01  4.56324000E+03  6.82024000E+02
  1.54973000E+02  4.44553000E+01  1.30290000E+01  1.82773000E+00  2.09642000E+01
  4.80331000E+00  1.45933000E+00  4.83456000E-01  1.45585000E-01  4.38000000E-02
  6.26000000E-01  4.56324000E+03  6.82024000E+02  1.54973000E+02  4.44553000E+01
  1.30290000E+01  1.82773000E+00  2.09642000E+01  4.80331000E+00  1.45933000E+00
  4.83456000E-01  1.45585000E-01  4.38000000E-02  6.26000000E-01  4.56324000E+03
  6.82024000E+02  1.54973000E+02  4.44553000E+01  1.30290000E+01  1.82773000E+00
  2.09642000E+01  4.80331000E+00  1.45933000E+00  4.83456000E-01  1.45585000E-01
  4.38000000E-02  6.26000000E-01  4.56324000E+03  6.82024000E+02  1.54973000E+02
  4.44553000E+01  1.30290000E+01  1.82773000E+00  2.09642000E+01  4.80331000E+00
  1.45933000E+00  4.83456000E-01  1.45585000E-01  4.38000000E-02  6.26000000E-01
  4.56324000E+03  6.82024000E+02  1.54973000E+02  4.44553000E+01  1.30290000E+01
  1.82773000E+00  2.09642000E+01  4.80331000E+00  1.45933000E+00  4.83456000E-01
  1.45585000E-01  4.38000000E-02  6.26000000E-01  1.05819000E+05  1.58720000E+04
  3.61965000E+03  1.03080000E+03  3.39908000E+02  1.24538000E+02  1.24538000E+02
  4.95135000E+01  2.08056000E+01  6.58346000E+00  2.56468000E+00  5.59763000E-01
  1.83273000E-01  4.83000000E-02  5.89776000E+02  1.39849000E+02  4.51413000E+01
  1.68733000E+01  2.77152000E+00  6.74110000E+00  2.77152000E+00  1.02387000E+00
  3.81368000E-01  1.09437000E-01  7.50000000E-01  1.05819000E+05  1.58720000E+04
  3.61965000E+03  1.03080000E+03  3.39908000E+02  1.24538000E+02  1.24538000E+02
  4.95135000E+01  2.08056000E+01  6.58346000E+00  2.56468000E+00  5.59763000E-01
  1.83273000E-01  4.83000000E-02  5.89776000E+02  1.39849000E+02  4.51413000E+01
  1.68733000E+01  2.77152000E+00  6.74110000E+00  2.77152000E+00  1.02387000E+00
  3.81368000E-01  1.09437000E-01  7.50000000E-01  1.05819000E+05  1.58720000E+04
  3.61965000E+03  1.03080000E+03  3.39908000E+02  1.24538000E+02  1.24538000E+02
  4.95135000E+01  2.08056000E+01  6.58346000E+00  2.56468000E+00  5.59763000E-01
  1.83273000E-01  4.83000000E-02  5.89776000E+02  1.39849000E+02  4.51413000E+01
  1.68733000E+01  2.77152000E+00  6.74110000E+00  2.77152000E+00  1.02387000E+00
  3.81368000E-01  1.09437000E-01  7.50000000E-01  3.38650000E+01  5.09479000E+00
  1.15879000E+00  3.25840000E-01  1.02741000E-01  3.60000000E-02  7.50000000E-01
  3.38650000E+01  5.09479000E+00  1.15879000E+00  3.25840000E-01  1.02741000E-01
  3.60000000E-02  7.50000000E-01  3.38650000E+01  5.09479000E+00  1.15879000E+00
  3.25840000E-01  1.02741000E-01  3.60000000E-02  7.50000000E-01
Contraction coefficients                   R   N=         174
  1.96665025E-03  1.52306019E-02  7.61269097E-02  2.60801033E-01  6.16462078E-01
  2.21006028E-01  1.14660081E-01  9.19999648E-01 -3.03068213E-03  1.00000000E+00
  1.00000000E+00  1.00000000E+00  1.00000000E+00  1.96665025E-03  1.52306019E-02
  7.61269097E-02  2.60801033E-01  6.16462078E-01  2.21006028E-01  1.14660081E-01
  9.19999648E-01 -3.03068213E-03  1.00000000E+00  1.00000000E+00  1.00000000E+00
  1.00000000E+00  1.96665025E-03  1.52306019E-02  7.61269097E-02  2.60801033E-01
  6.16462078E-01  2.21006028E-01  1.14660081E-01  9.19999648E-01 -3.03068213E-03
  1.00000000E+00  1.00000000E+00  1.00000000E+00  1.00000000E+00  1.96665025E-03
  1.52306019E-02  7.61269097E-02  2.60801033E-01  6.16462078E-01  2.21006028E-01
  1.14660081E-01  9.19999648E-01 -3.03068213E-03  1.00000000E+00  1.00000000E+00
  1.00000000E+00  1.00000000E+00  1.96665025E-03  1.52306019E-02  7.61269097E-02
  2.60801033E-01  6.16462078E-01  2.21006028E-01  1.14660081E-01  9.19999648E-01
 -3.03068213E-03  1.00000000E+00  1.00000000E+00  1.00000000E+00  1.00000000E+00
  1.96665025E-03  1.52306019E-02  7.61269097E-02  2.60801033E-01  6.16462078E-01
  2.21006028E-01  1.14660081E-01  9.19999648E-01 -3.03068213E-03  1.00000000E+00
  1.00000000E+00  1.00000000E+00  1.00000000E+00  7.38000247E-04  5.71800191E-03
  2.94950099E-02  1.17286039E-01  3.62949121E-01  5.84149195E-01  1.34176973E-01
  6.24249876E-01  2.91755942E-01  1.00000000E+00  1.00000000E+00  1.00000000E+00
  1.00000000E+00  1.00000000E+00  3.66556935E-03  2.83679194E-02  1.24756603E-01
  3.39654631E-01  7.47585963E-01 -1.57224381E+00  9.92388882E-01  1.00000000E+00
  1.00000000E+00  1.00000000E+00  1.00000000E+00  7.38000247E-04  5.71800191E-03
  2.94950099E-02  1.17286039E-01  3.62949121E-01  5.84149195E-01  1.34176973E-01
  6.24249876E-01  2.91755942E-01  1.00000000E+00  1.00000000E+00  1.00000000E+00
  1.00000000E+00  1.00000000E+00  3.66556935E-03  2.83679194E-02  1.24756603E-01
  3.39654631E-01  7.47585963E-01 -1.57224381E+00  9.92388882E-01  1.00000000E+00
  1.00000000E+00  1.00000000E+00  1.00000000E+00  7.38000247E-04  5.71800191E-03
  2.94950099E-02  1.17286039E-01  3.62949121E-01  5.84149195E-01  1.34176973E-01
  6.24249876E-01  2.91755942E-01  1.00000000E+00  1.00000000E+00  1.00000000E+00
  1.00000000E+00  1.00000000E+00  3.66556935E-03  2.83679194E-02  1.24756603E-01
  3.39654631E-01  7.47585963E-01 -1.57224381E+00  9.92388882E-01  1.00000000E+00
  1.00000000E+00  1.00000000E+00  1.00000000E+00  2.54938145E-02  1.90373109E-01
  8.52161486E-01  1.00000000E+00  1.00000000E+00  1.00000000E+00  1.00000000E+00
  2.54938145E-02  1.90373109E-01  8.52161486E-01  1.00000000E+00  1.00000000E+00
  1.00000000E+00  1.00000000E+00  2.54938145E-02  1.90373109E-01  8.52161486E-01
  1.00000000E+00  1.00000000E+00  1.00000000E+00  1.00000000E+00
P(S=P) Contraction coefficients            R   N=         174
  0.00000000E+00  0.00000000E+00  0.00000000E+00  0.00000000E+00  0.00000000E+00
  0.00000000E+00  4.02486927E-02  2.37593957E-01  8.15853851E-01  1.00000000E+00
  1.00000000E+00  1.00000000E+00  0.00000000E+00  0.00000000E+00  0.00000000E+00
  0.00000000E+00  0.00000000E+00  0.00000000E+00  0.00000000E+00  4.02486927E-02
  2.37593957E-01  8.15853851E-01  1.00000000E+00  1.00000000E+00  1.00000000E+00
  0.00000000E+00  0.00000000E+00  0.00000000E+00  0.00000000E+00  0.00000000E+00
  0.00000000E+00  0.00000000E+00  4.02486927E-02  2.37593957E-01  8.15853851E-01
  1.00000000E+00  1.00000000E+00  1.00000000E+00  0.00000000E+00  0.00000000E+00
  0.00000000E+00  0.00000000E+00  0.00000000E+00  0.00000000E+00  0.00000000E+00
  4.02486927E-02  2.37593957E-01  8.15853851E-01  1.00000000E+00  1.00000000E+00
  1.00000000E+00  0.00000000E+00  0.00000000E+00  0.00000000E+00  0.00000000E+00
  0.00000000E+00  0.00000000E+00  0.00000000E+00  4.02486927E-02  2.37593957E-01
  8.15853851E-01  1.00000000E+00  1.00000000E+00  1.00000000E+00  0.00000000E+00
  0.00000000E+00  0.00000000E+00  0.00000000E+00  0.00000000E+00  0.00000000E+00
  0.00000000E+00  4.02486927E-02  2.37593957E-01  8.15853851E-01  1.00000000E+00
  1.00000000E+00  1.00000000E+00  0.00000000E+00  0.00000000E+00  0.00000000E+00
  0.00000000E+00  0.00000000E+00  0.00000000E+00  0.00000000E+00  0.00000000E+00
  0.00000000E+00  0.00000000E+00  0.00000000E+00  0.00000000E+00  0.00000000E+00
  0.00000000E+00  1.00000000E+00  0.00000000E+00  0.00000000E+00  0.00000000E+00
  0.00000000E+00  0.00000000E+00  0.00000000E+00  0.00000000E+00  0.00000000E+00
  0.00000000E+00  0.00000000E+00  0.00000000E+00  0.00000000E+00  0.00000000E+00
  0.00000000E+00  0.00000000E+00  0.00000000E+00  0.00000000E+00  0.00000000E+00
  0.00000000E+00  0.00000000E+00  0.00000000E+00  0.00000000E+00  0.00000000E+00
  0.00000000E+00  1.00000000E+00  0.00000000E+00  0.00000000E+00  0.00000000E+00
  0.00000000E+00  0.00000000E+00  0.00000000E+00  0.00000000E+00  0.00000000E+00
  0.00000000E+00  0.00000000E+00  0.00000000E+00  0.00000000E+00  0.00000000E+00
  0.00000000E+00  0.00000000E+00  0.00000000E+00  0.00000000E+00  0.00000000E+00
  0.00000000E+00  0.00000000E+00  0.00000000E+00  0.00000000E+00  0.00000000E+00
  0.00000000E+00  1.00000000E+00  0.00000000E+00  0.00000000E+00  0.00000000E+00
  0.00000000E+00  0.00000000E+00  0.00000000E+00  0.00000000E+00  0.00000000E+00
  0.00000000E+00  0.00000000E+00  0.00000000E+00  0.00000000E+00  0.00000000E+00
  0.00000000E+00  0.00000000E+00  0.00000000E+00  0.00000000E+00  0.00000000E+00
  0.00000000E+00  0.00000000E+00  0.00000000E+00  0.00000000E+00  0.00000000E+00
  0.00000000E+00  0.00000000E+00  0.00000000E+00  0.00000000E+00  0.00000000E+00
  0.00000000E+00  0.00000000E+00  0.00000000E+00  0.00000000E+00
Coordinates of each shell                  R   N=         270
  3.06391318E-01  1.78673231E-06  2.51725062E-33  3.06391318E-01  1.78673231E-06
  2.51725062E-33  3.06391318E-01  1.78673231E-06  2.51725062E-33  3.06391318E-01
  1.78673231E-06  2.51725062E-33  3.06391318E-01  1.78673231E-06  2.51725062E-33
  3.06391318E-01  1.78673231E-06  2.51725062E-33 -1.04731791E+00 -2.21651547E+00
 -4.93038066E-32 -1.04731791E+00 -2.21651547E+00 -4.93038066E-32 -1.04731791E+00
 -2.21651547E+00 -4.93038066E-32 -1.04731791E+00 -2.21651547E+00 -4.93038066E-32
 -1.04731791E+00 -2.21651547E+00 -4.93038066E-32 -1.04731791E+00 -2.21651547E+00
 -4.93038066E-32 -3.68016332E+00 -2.27890964E+00 -4.93038066E-32 -3.68016332E+00
 -2.27890964E+00 -4.93038066E-32 -3.68016332E+00 -2.27890964E+00 -4.93038066E-32
 -3.68016332E+00 -2.27890964E+00 -4.93038066E-32 -3.68016332E+00 -2.27890964E+00
 -4.93038066E-32 -3.68016332E+00 -2.27890964E+00 -4.93038066E-32 -4.99203164E+00
  1.88693415E-06  3.59516954E-32 -4.99203164E+00  1.88693415E-06  3.59516954E-32
 -4.99203164E+00  1.88693415E-06  3.59516954E-32 -4.99203164E+00  1.88693415E-06
  3.59516954E-32 -4.99203164E+00  1.88693415E-06  3.59516954E-32 -4.99203164E+00
  1.88693415E-06  3.59516954E-32 -3.68016332E+00  2.27891304E+00  4.93038066E-32
 -3.68016332E+00  2.27891304E+00  4.93038066E-32 -3.68016332E+00  2.27891304E+00
  4.93038066E-32 -3.68016332E+00  2.27891304E+00  4.93038066E-32 -3.68016332E+00
  2.27891304E+00  4.93038066E-32 -3.68016332E+00  2.27891304E+00  4.93038066E-32
 -1.04731751E+00  2.21651939E+00  0.00000000E+00 -1.04731751E+00  2.21651939E+00
  0.00000000E+00 -1.04731751E+00  2.21651939E+00  0.00000000E+00 -1.04731751E+00
  2.21651939E+00  0.00000000E+00 -1.04731751E+00  2.21651939E+00  0.00000000E+00
 -1.04731751E+00  2.21651939E+00  0.00000000E+00  5.34418212E-01  5.16898477E+00
  0.00000000E+00  5.34418212E-01  5.16898477E+00  0.00000000E+00  5.34418212E-01
  5.16898477E+00  0.00000000E+00  5.34418212E-01  5.16898477E+00  0.00000000E+00
  5.34418212E-01  5.16898477E+00  0.00000000E+00  5.34418212E-01  5.16898477E+00
  0.00000000E+00  5.34418212E-01  5.16898477E+00  0.00000000E+00  5.34418212E-01
  5.16898477E+00  0.00000000E+00  5.34418212E-01  5.16898477E+00  0.00000000E+00
  5.34418212E-01  5.16898477E+00  0.00000000E+00  5.34418212E-01  5.16898477E+00
  0.00000000E+00  5.34418212E-01  5.16898477E+00  0.00000000E+00  5.34418212E-01
  5.16898477E+00  0.00000000E+00  4.88570656E+00 -6.15742386E-06 -1.05181354E-31
  4.88570656E+00 -6.15742386E-06 -1.05181354E-31  4.88570656E+00 -6.15742386E-06
 -1.05181354E-31  4.88570656E+00 -6.15742386E-06 -1.05181354E-31  4.88570656E+00
 -6.15742386E-06 -1.05181354E-31  4.88570656E+00 -6.15742386E-06 -1.05181354E-31
  4.88570656E+00 -6.15742386E-06 -1.05181354E-31  4.88570656E+00 -6.15742386E-06
 -1.05181354E-31  4.88570656E+00 -6.15742386E-06 -1.05181354E-31  4.88570656E+00
 -6.15742386E-06 -1.05181354E-31  4.88570656E+00 -6.15742386E-06 -1.05181354E-31
  4.88570656E+00 -6.15742386E-06 -1.05181354E-31  4.88570656E+00 -6.15742386E-06
 -1.05181354E-31  5.34416787E-01 -5.16898280E+00  0.00000000E+00  5.34416787E-01
 -5.16898280E+00  0.00000000E+00  5.34416787E-01 -5.16898280E+00  0.00000000E+00
  5.34416787E-01 -5.16898280E+00  0.00000000E+00  5.34416787E-01 -5.16898280E+00
  0.00000000E+00  5.34416787E-01 -5.16898280E+00  0.00000000E+00  5.34416787E-01
 -5.16898280E+00  0.00000000E+00  5.34416787E-01 -5.16898280E+00  0.00000000E+00
  5.34416787E-01 -5.16898280E+00  0.00000000E+00  5.34416787E-01 -5.16898280E+00
  0.00000000E+00  5.34416787E-01 -5.16898280E+00  0.00000000E+00  5.34416787E-01
 -5.16898280E+00  0.00000000E+00  5.34416787E-01 -5.16898280E+00  0.00000000E+00
 -4.67139374E+00 -4.07139165E+00  0.00000000E+00 -4.67139374E+00 -4.07139165E+00
  0.00000000E+00 -4.67139374E+00 -4.07139165E+00  0.00000000E+00 -4.67139374E+00
 -4.07139165E+00  0.00000000E+00 -4.67139374E+00 -4.07139165E+00  0.00000000E+00
 -7.04080571E+00  1.74923714E-06  7.72373139E-32 -7.04080571E+00  1.74923714E-06