Neutral Radical (removed 4) 12_                                         
Freq      UM062X                                                      6-311++G(d,p)       
Number of atoms                            I               11
Info1-9                                    I   N=           9
           8           6        1002           0           0         100
           6          18       -5502
Full Title                                 C   N=           3
Neutral Radical (removed 4) 12_     
Route                                      C   N=           5
# opt freq 6-311++g(d,p) guess=read geom=allcheck m062x     
Charge                                     I                0
Multiplicity                               I                2
Number of electrons                        I               73
Number of alpha electrons                  I               37
Number of beta electrons                   I               36
Number of basis functions                  I              213
Number of independent functions            I              213
Number of point charges in /Mol/           I                0
Number of translation vectors              I                0
Atomic numbers                             I   N=          11
           6           6           6           6           6           6
          17          17           1           1           1
Nuclear charges                            R   N=          11
  6.00000000E+00  6.00000000E+00  6.00000000E+00  6.00000000E+00  6.00000000E+00
  6.00000000E+00  1.70000000E+01  1.70000000E+01  1.00000000E+00  1.00000000E+00
  1.00000000E+00
Current cartesian coordinates              R   N=          33
  8.57893517E-02 -1.36028483E+00 -6.16297582E-33  2.41616632E+00 -2.60152949E+00
  0.00000000E+00  4.53763652E+00 -1.11890626E+00 -9.86076132E-32  4.56476994E+00
  1.47562916E+00  0.00000000E+00  2.22426313E+00  2.68351596E+00  0.00000000E+00
  1.38777878E-17  1.27777124E+00  3.08148791E-33 -2.86581941E+00  2.86581990E+00
  1.97215226E-31 -2.65513959E+00 -3.14669173E+00  9.86076132E-32  2.48334477E+00
 -4.64697571E+00  2.46519033E-32  6.30093943E+00  2.55832326E+00 -9.86076132E-32
  2.10026714E+00  4.72629890E+00  0.00000000E+00
Number of symbols in /Mol/                 I                0
Force Field                                I                0
Atom Types                                 C   N=          11
                                                            
                                                            
            
Int Atom Types                             I   N=          11
           0           0           0           0           0           0
           0           0           0           0           0
MM charges                                 R   N=          11
  0.00000000E+00  0.00000000E+00  0.00000000E+00  0.00000000E+00  0.00000000E+00
  0.00000000E+00  0.00000000E+00  0.00000000E+00  0.00000000E+00  0.00000000E+00
  0.00000000E+00
Integer atomic weights                     I   N=          11
          12          12          12          12          12          12
          35          35           1           1           1
Real atomic weights                        R   N=          11
  1.20000000E+01  1.20000000E+01  1.20000000E+01  1.20000000E+01  1.20000000E+01
  1.20000000E+01  3.49688527E+01  3.49688527E+01  1.00782504E+00  1.00782504E+00
  1.00782504E+00
Atom fragment info                         I   N=          11
           0           0           0           0           0           0
           0           0           0           0           0
Atom residue num                           I   N=          11
           0           0           0           0           0           0
           0           0           0           0           0
Nuclear spins                              I   N=          11
           0           0           0           0           0           0
           3           3           1           1           1
Nuclear ZEff                               R   N=          11
 -3.60000000E+00 -3.60000000E+00 -3.60000000E+00 -3.60000000E+00 -3.60000000E+00
 -3.60000000E+00 -1.42400000E+01 -1.42400000E+01 -1.00000000E+00 -1.00000000E+00
 -1.00000000E+00
Nuclear ZNuc                               R   N=          11
  6.00000000E+00  6.00000000E+00  6.00000000E+00  6.00000000E+00  6.00000000E+00
  6.00000000E+00  1.70000000E+01  1.70000000E+01  1.00000000E+00  1.00000000E+00
  1.00000000E+00
Nuclear QMom                               R   N=          11
  0.00000000E+00  0.00000000E+00  0.00000000E+00  0.00000000E+00  0.00000000E+00
  0.00000000E+00 -8.16500000E+00 -8.16500000E+00  0.00000000E+00  0.00000000E+00
  0.00000000E+00
Nuclear GFac                               R   N=          11
  0.00000000E+00  0.00000000E+00  0.00000000E+00  0.00000000E+00  0.00000000E+00
  0.00000000E+00  8.21874000E-01  8.21874000E-01  2.79284600E+00  2.79284600E+00
  2.79284600E+00
MicOpt                                     I   N=          11
          -1          -1          -1          -1          -1          -1
          -1          -1          -1          -1          -1
Number of residues                         I                0
Number of secondary structures             I                0
Redundant internal dimensions              I   N=           4
          47          11          16          20
Redundant internal coordinate indices      I   N=         188
           1           2           0           0           1           6
           0           0           1           8           0           0
           2           3           0           0           2           9
           0           0           3           4           0           0
           4           5           0           0           4          10
           0           0           5           6           0           0
           5          11           0           0           6           7
           0           0           2           1           6           0
           2           1           8           0           6           1
           8           0           1           2           3           0
           1           2           9           0           3           2
           9           0           2           3           4           0
           3           4           5           0           3           4
          10           0           5           4          10           0
           4           5           6           0           4           5
          11           0           6           5          11           0
           1           6           5           0           1           6
           7           0           5           6           7           0
           6           1           2           3           6           1
           2           9           8           1           2           3
           8           1           2           9           2           1
           6           5           2           1           6           7
           8           1           6           5           8           1
           6           7           1           2           3           4
           9           2           3           4           2           3
           4           5           2           3           4          10
           3           4           5           6           3           4
           5          11          10           4           5           6
          10           4           5          11           4           5
           6           1           4           5           6           7
          11           5           6           1          11           5
           6           7
Redundant internal coordinates             R   N=          47
  2.64033050E+00  2.63945064E+00  3.27168780E+00  2.58820545E+00  2.04654910E+00
  2.59467730E+00  2.63381143E+00  2.04609653E+00  2.63124774E+00  2.04654273E+00
  3.27640343E+00  2.09271971E+00  2.07457161E+00  2.11589399E+00  2.04221330E+00
  2.09304238E+00  2.14792963E+00  2.19121829E+00  2.03676684E+00  2.13885359E+00
  2.10756487E+00  2.10154407E+00  2.10784952E+00  2.07379171E+00  2.10190841E+00
  2.10931653E+00  2.07196036E+00  0.00000000E+00  3.14159265E+00  3.14159265E+00
  0.00000000E+00  0.00000000E+00  3.14159265E+00  3.14159265E+00  0.00000000E+00
 -0.00000000E+00  3.14159265E+00  0.00000000E+00  3.14159265E+00 -0.00000000E+00
  3.14159265E+00  3.14159265E+00 -0.00000000E+00 -0.00000000E+00  3.14159265E+00
  3.14159265E+00 -0.00000000E+00
ZRed-IntVec                                I   N=          47
           0           0           0           0           0           0
           0           0           0           0           0           0
           0           0           0           0           0           0
           0           0           0           0           0           0
           0           0           0           0           0           0
           0           0           0           0           0           0
           0           0           0           0           0           0
           0           0           0           0           0
ZRed-FPVec                                 R   N=          47
  0.00000000E+00  0.00000000E+00  0.00000000E+00  0.00000000E+00  0.00000000E+00
  0.00000000E+00  0.00000000E+00  0.00000000E+00  0.00000000E+00  0.00000000E+00
  0.00000000E+00  0.00000000E+00  0.00000000E+00  0.00000000E+00  0.00000000E+00
  0.00000000E+00  0.00000000E+00  0.00000000E+00  0.00000000E+00  0.00000000E+00
  0.00000000E+00  0.00000000E+00  0.00000000E+00  0.00000000E+00  0.00000000E+00
  0.00000000E+00  0.00000000E+00  0.00000000E+00  0.00000000E+00  0.00000000E+00
  0.00000000E+00  0.00000000E+00  0.00000000E+00  0.00000000E+00  0.00000000E+00
  0.00000000E+00  0.00000000E+00  0.00000000E+00  0.00000000E+00  0.00000000E+00
  0.00000000E+00  0.00000000E+00  0.00000000E+00  0.00000000E+00  0.00000000E+00
  0.00000000E+00  0.00000000E+00
ZRed-Constraint1                           R   N=          47
  2.64033050E+00  2.63945064E+00  3.27168780E+00  2.58820545E+00  2.04654910E+00
  2.59467730E+00  2.63381143E+00  2.04609653E+00  2.63124774E+00  2.04654273E+00
  3.27640343E+00  2.09271971E+00  2.07457161E+00  2.11589399E+00  2.04221330E+00
  2.09304238E+00  2.14792963E+00  2.19121829E+00  2.03676684E+00  2.13885359E+00
  2.10756487E+00  2.10154407E+00  2.10784952E+00  2.07379171E+00  2.10190841E+00
  2.10931653E+00  2.07196036E+00 -0.00000000E+00  3.14159265E+00  3.14159265E+00
  0.00000000E+00 -0.00000000E+00  3.14159265E+00  3.14159265E+00 -0.00000000E+00
  0.00000000E+00  3.14159265E+00  0.00000000E+00  3.14159265E+00 -0.00000000E+00
  3.14159265E+00  3.14159265E+00 -0.00000000E+00  0.00000000E+00  3.14159265E+00
  3.14159265E+00 -0.00000000E+00
ZRed-Constraint2                           R   N=          47
  2.67224666E+00  2.67202182E+00  3.19241327E+00  2.58695905E+00  2.07385898E+00
  2.59156581E+00  2.65722040E+00  2.07221167E+00  2.66168345E+00  2.07800649E+00
  3.20214657E+00  2.08569347E+00  2.07874766E+00  2.11874418E+00  2.00583652E+00
  2.12964320E+00  2.14770559E+00  2.25859692E+00  2.00632405E+00  2.14698038E+00
  2.12988087E+00  2.09300030E+00  2.09533492E+00  2.09485009E+00  2.11691935E+00
  2.10089275E+00  2.06537321E+00  0.00000000E+00  3.14159265E+00  3.14159265E+00
  0.00000000E+00  0.00000000E+00  3.14159265E+00  3.14159265E+00 -0.00000000E+00
 -0.00000000E+00  3.14159265E+00 -0.00000000E+00  3.14159265E+00  0.00000000E+00
  3.14159265E+00  3.14159265E+00 -0.00000000E+00 -0.00000000E+00  3.14159265E+00
  3.14159265E+00  0.00000000E+00
SymInf integers                            I   N=          26
           1           2           1           1           1           1
           1          -1           0           0           0           0
           0           0           0           0           0           0
           0           0           0           0           0           0
           0           0
RotTr to input orientation                 R   N=          12
  9.98004110E-01  6.31489989E-02 -1.20748694E-16  6.31489989E-02 -9.98004110E-01
 -2.04291624E-17 -1.21797774E-16  1.27632289E-17 -1.00000000E+00 -5.94923976E+00
 -1.03713492E+00 -1.58027343E-17
Number of contracted shells                I               77
Number of primitive shells                 I              149
Pure/Cartesian d shells                    I                0
Pure/Cartesian f shells                    I                0
Highest angular momentum                   I                2
Largest degree of contraction              I                6
Shell types                                I   N=          77
           0          -1          -1          -1          -1          -2
           0          -1          -1          -1          -1          -2
           0          -1          -1          -1          -1          -2
           0          -1          -1          -1          -1          -2
           0          -1          -1          -1          -1          -2
           0          -1          -1          -1          -1          -2
           0           0           0           0           0           0
          -1           1           1           1           1           1
          -2           0           0           0           0           0
           0          -1           1           1           1           1
           1          -2           0           0           0           0
           1           0           0           0           0           1
           0           0           0           0           1
Number of primitives per shell             I   N=          77
           6           3           1           1           1           1
           6           3           1           1           1           1
           6           3           1           1           1           1
           6           3           1           1           1           1
           6           3           1           1           1           1
           6           3           1           1           1           1
           6           3           1           1           1           1
           1           5           2           1           1           1
           1           6           3           1           1           1
           1           1           5           2           1           1
           1           1           3           1           1           1
           1           3           1           1           1           1
           3           1           1           1           1
Shell to atom map                          I   N=          77
           1           1           1           1           1           1
           2           2           2           2           2           2
           3           3           3           3           3           3
           4           4           4           4           4           4
           5           5           5           5           5           5
           6           6           6           6           6           6
           7           7           7           7           7           7
           7           7           7           7           7           7
           7           8           8           8           8           8
           8           8           8           8           8           8
           8           8           9           9           9           9
           9          10          10          10          10          10
          11          11          11          11          11
Primitive exponents                        R   N=         149
  4.56324000E+03  6.82024000E+02  1.54973000E+02  4.44553000E+01  1.30290000E+01
  1.82773000E+00  2.09642000E+01  4.80331000E+00  1.45933000E+00  4.83456000E-01
  1.45585000E-01  4.38000000E-02  6.26000000E-01  4.56324000E+03  6.82024000E+02
  1.54973000E+02  4.44553000E+01  1.30290000E+01  1.82773000E+00  2.09642000E+01
  4.80331000E+00  1.45933000E+00  4.83456000E-01  1.45585000E-01  4.38000000E-02
  6.26000000E-01  4.56324000E+03  6.82024000E+02  1.54973000E+02  4.44553000E+01
  1.30290000E+01  1.82773000E+00  2.09642000E+01  4.80331000E+00  1.45933000E+00
  4.83456000E-01  1.45585000E-01  4.38000000E-02  6.26000000E-01  4.56324000E+03
  6.82024000E+02  1.54973000E+02  4.44553000E+01  1.30290000E+01  1.82773000E+00
  2.09642000E+01  4.80331000E+00  1.45933000E+00  4.83456000E-01  1.45585000E-01
  4.38000000E-02  6.26000000E-01  4.56324000E+03  6.82024000E+02  1.54973000E+02
  4.44553000E+01  1.30290000E+01  1.82773000E+00  2.09642000E+01  4.80331000E+00
  1.45933000E+00  4.83456000E-01  1.45585000E-01  4.38000000E-02  6.26000000E-01
  4.56324000E+03  6.82024000E+02  1.54973000E+02  4.44553000E+01  1.30290000E+01
  1.82773000E+00  2.09642000E+01  4.80331000E+00  1.45933000E+00  4.83456000E-01
  1.45585000E-01  4.38000000E-02  6.26000000E-01  1.05819000E+05  1.58720000E+04
  3.61965000E+03  1.03080000E+03  3.39908000E+02  1.24538000E+02  1.24538000E+02
  4.95135000E+01  2.08056000E+01  6.58346000E+00  2.56468000E+00  5.59763000E-01
  1.83273000E-01  4.83000000E-02  5.89776000E+02  1.39849000E+02  4.51413000E+01
  1.68733000E+01  2.77152000E+00  6.74110000E+00  2.77152000E+00  1.02387000E+00
  3.81368000E-01  1.09437000E-01  7.50000000E-01  1.05819000E+05  1.58720000E+04
  3.61965000E+03  1.03080000E+03  3.39908000E+02  1.24538000E+02  1.24538000E+02
  4.95135000E+01  2.08056000E+01  6.58346000E+00  2.56468000E+00  5.59763000E-01
  1.83273000E-01  4.83000000E-02  5.89776000E+02  1.39849000E+02  4.51413000E+01
  1.68733000E+01  2.77152000E+00  6.74110000E+00  2.77152000E+00  1.02387000E+00
  3.81368000E-01  1.09437000E-01  7.50000000E-01  3.38650000E+01  5.09479000E+00
  1.15879000E+00  3.25840000E-01  1.02741000E-01  3.60000000E-02  7.50000000E-01
  3.38650000E+01  5.09479000E+00  1.15879000E+00  3.25840000E-01  1.02741000E-01
  3.60000000E-02  7.50000000E-01  3.38650000E+01  5.09479000E+00  1.15879000E+00
  3.25840000E-01  1.02741000E-01  3.60000000E-02  7.50000000E-01
Contraction coefficients                   R   N=         149
  1.96665025E-03  1.52306019E-02  7.61269097E-02  2.60801033E-01  6.16462078E-01
  2.21006028E-01  1.14660081E-01  9.19999648E-01 -3.03068213E-03  1.00000000E+00
  1.00000000E+00  1.00000000E+00  1.00000000E+00  1.96665025E-03  1.52306019E-02
  7.61269097E-02  2.60801033E-01  6.16462078E-01  2.21006028E-01  1.14660081E-01
  9.19999648E-01 -3.03068213E-03  1.00000000E+00  1.00000000E+00  1.00000000E+00
  1.00000000E+00  1.96665025E-03  1.52306019E-02  7.61269097E-02  2.60801033E-01
  6.16462078E-01  2.21006028E-01  1.14660081E-01  9.19999648E-01 -3.03068213E-03
  1.00000000E+00  1.00000000E+00  1.00000000E+00  1.00000000E+00  1.96665025E-03
  1.52306019E-02  7.61269097E-02  2.60801033E-01  6.16462078E-01  2.21006028E-01
  1.14660081E-01  9.19999648E-01 -3.03068213E-03  1.00000000E+00  1.00000000E+00
  1.00000000E+00  1.00000000E+00  1.96665025E-03  1.52306019E-02  7.61269097E-02
  2.60801033E-01  6.16462078E-01  2.21006028E-01  1.14660081E-01  9.19999648E-01
 -3.03068213E-03  1.00000000E+00  1.00000000E+00  1.00000000E+00  1.00000000E+00
  1.96665025E-03  1.52306019E-02  7.61269097E-02  2.60801033E-01  6.16462078E-01
  2.21006028E-01  1.14660081E-01  9.19999648E-01 -3.03068213E-03  1.00000000E+00
  1.00000000E+00  1.00000000E+00  1.00000000E+00  7.38000247E-04  5.71800191E-03
  2.94950099E-02  1.17286039E-01  3.62949121E-01  5.84149195E-01  1.34176973E-01
  6.24249876E-01  2.91755942E-01  1.00000000E+00  1.00000000E+00  1.00000000E+00
  1.00000000E+00  1.00000000E+00  3.66556935E-03  2.83679194E-02  1.24756603E-01
  3.39654631E-01  7.47585963E-01 -1.57224381E+00  9.92388882E-01  1.00000000E+00
  1.00000000E+00  1.00000000E+00  1.00000000E+00  7.38000247E-04  5.71800191E-03
  2.94950099E-02  1.17286039E-01  3.62949121E-01  5.84149195E-01  1.34176973E-01
  6.24249876E-01  2.91755942E-01  1.00000000E+00  1.00000000E+00  1.00000000E+00
  1.00000000E+00  1.00000000E+00  3.66556935E-03  2.83679194E-02  1.24756603E-01
  3.39654631E-01  7.47585963E-01 -1.57224381E+00  9.92388882E-01  1.00000000E+00
  1.00000000E+00  1.00000000E+00  1.00000000E+00  2.54938145E-02  1.90373109E-01
  8.52161486E-01  1.00000000E+00  1.00000000E+00  1.00000000E+00  1.00000000E+00
  2.54938145E-02  1.90373109E-01  8.52161486E-01  1.00000000E+00  1.00000000E+00
  1.00000000E+00  1.00000000E+00  2.54938145E-02  1.90373109E-01  8.52161486E-01
  1.00000000E+00  1.00000000E+00  1.00000000E+00  1.00000000E+00
P(S=P) Contraction coefficients            R   N=         149
  0.00000000E+00  0.00000000E+00  0.00000000E+00  0.00000000E+00  0.00000000E+00
  0.00000000E+00  4.02486927E-02  2.37593957E-01  8.15853851E-01  1.00000000E+00
  1.00000000E+00  1.00000000E+00  0.00000000E+00  0.00000000E+00  0.00000000E+00
  0.00000000E+00  0.00000000E+00  0.00000000E+00  0.00000000E+00  4.02486927E-02
  2.37593957E-01  8.15853851E-01  1.00000000E+00  1.00000000E+00  1.00000000E+00
  0.00000000E+00  0.00000000E+00  0.00000000E+00  0.00000000E+00  0.00000000E+00
  0.00000000E+00  0.00000000E+00  4.02486927E-02  2.37593957E-01  8.15853851E-01
  1.00000000E+00  1.00000000E+00  1.00000000E+00  0.00000000E+00  0.00000000E+00
  0.00000000E+00  0.00000000E+00  0.00000000E+00  0.00000000E+00  0.00000000E+00
  4.02486927E-02  2.37593957E-01  8.15853851E-01  1.00000000E+00  1.00000000E+00
  1.00000000E+00  0.00000000E+00  0.00000000E+00  0.00000000E+00  0.00000000E+00
  0.00000000E+00  0.00000000E+00  0.00000000E+00  4.02486927E-02  2.37593957E-01
  8.15853851E-01  1.00000000E+00  1.00000000E+00  1.00000000E+00  0.00000000E+00
  0.00000000E+00  0.00000000E+00  0.00000000E+00  0.00000000E+00  0.00000000E+00
  0.00000000E+00  4.02486927E-02  2.37593957E-01  8.15853851E-01  1.00000000E+00
  1.00000000E+00  1.00000000E+00  0.00000000E+00  0.00000000E+00  0.00000000E+00
  0.00000000E+00  0.00000000E+00  0.00000000E+00  0.00000000E+00  0.00000000E+00
  0.00000000E+00  0.00000000E+00  0.00000000E+00  0.00000000E+00  0.00000000E+00
  0.00000000E+00  1.00000000E+00  0.00000000E+00  0.00000000E+00  0.00000000E+00
  0.00000000E+00  0.00000000E+00  0.00000000E+00  0.00000000E+00  0.00000000E+00
  0.00000000E+00  0.00000000E+00  0.00000000E+00  0.00000000E+00  0.00000000E+00
  0.00000000E+00  0.00000000E+00  0.00000000E+00  0.00000000E+00  0.00000000E+00
  0.00000000E+00  0.00000000E+00  0.00000000E+00  0.00000000E+00  0.00000000E+00
  0.00000000E+00  1.00000000E+00  0.00000000E+00  0.00000000E+00  0.00000000E+00
  0.00000000E+00  0.00000000E+00  0.00000000E+00  0.00000000E+00  0.00000000E+00
  0.00000000E+00  0.00000000E+00  0.00000000E+00  0.00000000E+00  0.00000000E+00
  0.00000000E+00  0.00000000E+00  0.00000000E+00  0.00000000E+00  0.00000000E+00
  0.00000000E+00  0.00000000E+00  0.00000000E+00  0.00000000E+00  0.00000000E+00
  0.00000000E+00  0.00000000E+00  0.00000000E+00  0.00000000E+00  0.00000000E+00
  0.00000000E+00  0.00000000E+00  0.00000000E+00  0.00000000E+00
Coordinates of each shell                  R   N=         231
  8.57893517E-02 -1.36028483E+00 -3.08148791E-33  8.57893517E-02 -1.36028483E+00
 -3.08148791E-33  8.57893517E-02 -1.36028483E+00 -3.08148791E-33  8.57893517E-02
 -1.36028483E+00 -3.08148791E-33  8.57893517E-02 -1.36028483E+00 -3.08148791E-33
  8.57893517E-02 -1.36028483E+00 -3.08148791E-33  2.41616632E+00 -2.60152949E+00
  0.00000000E+00  2.41616632E+00 -2.60152949E+00  0.00000000E+00  2.41616632E+00
 -2.60152949E+00  0.00000000E+00  2.41616632E+00 -2.60152949E+00  0.00000000E+00
  2.41616632E+00 -2.60152949E+00  0.00000000E+00  2.41616632E+00 -2.60152949E+00
  0.00000000E+00  4.53763652E+00 -1.11890626E+00  0.00000000E+00  4.53763652E+00
 -1.11890626E+00  0.00000000E+00  4.53763652E+00 -1.11890626E+00  0.00000000E+00
  4.53763652E+00 -1.11890626E+00  0.00000000E+00  4.53763652E+00 -1.11890626E+00
  0.00000000E+00  4.53763652E+00 -1.11890626E+00  0.00000000E+00  4.56476994E+00
  1.47562916E+00  0.00000000E+00  4.56476994E+00  1.47562916E+00  0.00000000E+00
  4.56476994E+00  1.47562916E+00  0.00000000E+00  4.56476994E+00  1.47562916E+00
  0.00000000E+00  4.56476994E+00  1.47562916E+00  0.00000000E+00  4.56476994E+00
  1.47562916E+00  0.00000000E+00  2.22426313E+00  2.68351596E+00  0.00000000E+00
  2.22426313E+00  2.68351596E+00  0.00000000E+00  2.22426313E+00  2.68351596E+00
  0.00000000E+00  2.22426313E+00  2.68351596E+00  0.00000000E+00  2.22426313E+00
  2.68351596E+00  0.00000000E+00  2.22426313E+00  2.68351596E+00  0.00000000E+00
  1.38777878E-17  1.27777124E+00  3.08148791E-33  1.38777878E-17  1.27777124E+00
  3.08148791E-33  1.38777878E-17  1.27777124E+00  3.08148791E-33  1.38777878E-17
  1.27777124E+00  3.08148791E-33  1.38777878E-17  1.27777124E+00  3.08148791E-33
  1.38777878E-17  1.27777124E+00  3.08148791E-33 -2.86581941E+00  2.86581990E+00
  9.86076132E-32 -2.86581941E+00  2.86581990E+00  9.86076132E-32 -2.86581941E+00
  2.86581990E+00  9.86076132E-32 -2.86581941E+00  2.86581990E+00  9.86076132E-32
 -2.86581941E+00  2.86581990E+00  9.86076132E-32 -2.86581941E+00  2.86581990E+00
  9.86076132E-32 -2.86581941E+00  2.86581990E+00  9.86076132E-32 -2.86581941E+00
  2.86581990E+00  9.86076132E-32 -2.86581941E+00  2.86581990E+00  9.86076132E-32
 -2.86581941E+00  2.86581990E+00  9.86076132E-32 -2.86581941E+00  2.86581990E+00
  9.86076132E-32 -2.86581941E+00  2.86581990E+00  9.86076132E-32 -2.86581941E+00
  2.86581990E+00  9.86076132E-32 -2.65513959E+00 -3.14669173E+00  4.93038066E-32
 -2.65513959E+00 -3.14669173E+00  4.93038066E-32 -2.65513959E+00 -3.14669173E+00
  4.93038066E-32 -2.65513959E+00 -3.14669173E+00  4.93038066E-32 -2.65513959E+00
 -3.14669173E+00  4.93038066E-32 -2.65513959E+00 -3.14669173E+00  4.93038066E-32
 -2.65513959E+00 -3.14669173E+00  4.93038066E-32 -2.65513959E+00 -3.14669173E+00
  4.93038066E-32 -2.65513959E+00 -3.14669173E+00  4.93038066E-32 -2.65513959E+00
 -3.14669173E+00  4.93038066E-32 -2.65513959E+00 -3.14669173E+00  4.93038066E-32
 -2.65513959E+00 -3.14669173E+00  4.93038066E-32 -2.65513959E+00 -3.14669173E+00
  4.93038066E-32  2.48334477E+00 -4.64697571E+00  0.00000000E+00  2.48334477E+00
 -4.64697571E+00  0.00000000E+00  2.48334477E+00 -4.64697571E+00  0.00000000E+00
  2.48334477E+00 -4.64697571E+00  0.00000000E+00  2.48334477E+00 -4.64697571E+00
  0.00000000E+00  6.30093943E+00  2.55832326E+00 -9.86076132E-32  6.30093943E+00
  2.55832326E+00 -9.86076132E-32  6.30093943E+00  2.55832326E+00 -9.86076132E-32
  6.30093943E+00  2.55832326E+00 -9.86076132E-32  6.30093943E+00  2.55832326E+00
 -9.86076132E-32  2.10026714E+00  4.72629890E+00  0.00000000E+00  2.10026714E+00
  4.72629890E+00  0.00000000E+00  2.10026714E+00  4.72629890E+00  0.00000000E+00
  2.10026714E+00  4.72629890E+00  0.00000000E+00  2.10026714E+00  4.72629890E+00
  0.00000000E+00
Num ILSW                                   I              100
ILSW                                       I   N=         100
           1           0           0           0           2           0
           0           0           0           0        4336          -1
           5           0           0           0           2           0
           0           0           1           0           1           0
           1           0           0           0           0           0
           0           0      100000           0          -1           0
           0           0           0           0           0           0
           0           0           0           1           0           0
           0 -2000000000           1           0           0           0
           0           0           4          52           0           0
           0           0          55           0           0           0
           0           0           0           0           0           1
           0           0           0           0           0           0
           0           0           0           0           0           0
           0           0           0           0           0           0
           0           0           0           0           0           0
           0           0           0           0
Num RLSW                                   I               52
RLSW                                       R   N=          52
  1.00000000E+00  1.00000000E+00  1.00000000E+00  1.00000000E+00  5.40000000E-01
  0.00000000E+00  0.00000000E+00  1.00000000E+00  0.00000000E+00  0.00000000E+00
  0.00000000E+00  0.00000000E+00  1.00000000E+00  0.00000000E+00  0.00000000E+00
  0.00000000E+00  0.00000000E+00  1.00000000E+00  0.00000000E+00  0.00000000E+00
  0.00000000E+00  0.00000000E+00  1.00000000E+00  0.00000000E+00  0.00000000E+00
  0.00000000E+00  0.00000000E+00  1.00000000E+00  0.00000000E+00  0.00000000E+00
  0.00000000E+00  0.00000000E+00  1.00000000E+00  0.00000000E+00  0.00000000E+00
  0.00000000E+00  0.00000000E+00  0.00000000E+00  1.00000000E+00  1.00000000E+00
  0.00000000E+00  1.00000000E+00  0.00000000E+00  0.00000000E+00  0.00000000E+00
  0.00000000E+00  0.00000000E+00  0.00000000E+00  0.00000000E+00  0.00000000E+00
  0.00000000E+00  0.00000000E+00
MxBond                                     I                3
NBond                                      I   N=          11
           3           3           2           3           3           3
           1           1           1           1           1
IBond                                      I   N=          33
           2           6           8           1           3           9
           2           4           0           3           5          10
           4           6          11           1           5           7
           6           0           0           1           0           0
           2           0           0           4           0           0
           5           0           0
RBond                                      R   N=          33