2-Chloro-Benzene Anion Radical (13)                                     
Freq      UM062X                                                      6-311++G(d,p)       
Number of atoms                            I               12
Info1-9                                    I   N=           9
           8           6        1002           0           0         100
           6          18       -5502
Full Title                                 C   N=           3
2-Chloro-Benzene Anion Radical (13) 
Route                                      C   N=           5
# opt freq 6-311++g(d,p) guess=read geom=allcheck m062x     
Charge                                     I               -1
Multiplicity                               I                2
Number of electrons                        I               75
Number of alpha electrons                  I               38
Number of beta electrons                   I               37
Number of basis functions                  I              220
Number of independent functions            I              220
Number of point charges in /Mol/           I                0
Number of translation vectors              I                0
Atomic numbers                             I   N=          12
           6           6           6           6           6           6
          17           1          17           1           1           1
Nuclear charges                            R   N=          12
  6.00000000E+00  6.00000000E+00  6.00000000E+00  6.00000000E+00  6.00000000E+00
  6.00000000E+00  1.70000000E+01  1.00000000E+00  1.70000000E+01  1.00000000E+00
  1.00000000E+00  1.00000000E+00
Current cartesian coordinates              R   N=          36
  0.00000000E+00 -2.22044605E-16  1.34769742E+00 -1.97215226E-31 -2.24255769E+00
 -1.18330571E-02 -7.88860905E-31 -2.28623663E+00 -2.63034246E+00 -4.43734259E-31
  2.22044605E-16 -3.92101382E+00 -2.79983237E-16  2.28623663E+00 -2.63034246E+00
 -2.74634109E-16  2.24255769E+00 -1.18330571E-02  1.38050658E-30  5.10050929E+00
  1.67738097E+00  1.47911420E-31  2.22044605E-16  3.39303397E+00  6.24632238E-16
 -5.10050929E+00  1.67738097E+00 -1.18329136E-30 -4.06309694E+00 -3.65165472E+00
 -4.43734259E-31 -4.44089210E-16 -5.97467292E+00 -4.97585867E-16  4.06309694E+00
 -3.65165472E+00
Number of symbols in /Mol/                 I                0
Force Field                                I                0
Atom Types                                 C   N=          12
                                                            
                                                            
                        
Int Atom Types                             I   N=          12
           0           0           0           0           0           0
           0           0           0           0           0           0
MM charges                                 R   N=          12
  0.00000000E+00  0.00000000E+00  0.00000000E+00  0.00000000E+00  0.00000000E+00
  0.00000000E+00  0.00000000E+00  0.00000000E+00  0.00000000E+00  0.00000000E+00
  0.00000000E+00  0.00000000E+00
Integer atomic weights                     I   N=          12
          12          12          12          12          12          12
          35           1          35           1           1           1
Real atomic weights                        R   N=          12
  1.20000000E+01  1.20000000E+01  1.20000000E+01  1.20000000E+01  1.20000000E+01
  1.20000000E+01  3.49688527E+01  1.00782504E+00  3.49688527E+01  1.00782504E+00
  1.00782504E+00  1.00782504E+00
Atom fragment info                         I   N=          12
           0           0           0           0           0           0
           0           0           0           0           0           0
Atom residue num                           I   N=          12
           0           0           0           0           0           0
           0           0           0           0           0           0
Nuclear spins                              I   N=          12
           0           0           0           0           0           0
           3           1           3           1           1           1
Nuclear ZEff                               R   N=          12
 -3.60000000E+00 -3.60000000E+00 -3.60000000E+00 -3.60000000E+00 -3.60000000E+00
 -3.60000000E+00 -1.42400000E+01 -1.00000000E+00 -1.42400000E+01 -1.00000000E+00
 -1.00000000E+00 -1.00000000E+00
Nuclear ZNuc                               R   N=          12
  6.00000000E+00  6.00000000E+00  6.00000000E+00  6.00000000E+00  6.00000000E+00
  6.00000000E+00  1.70000000E+01  1.00000000E+00  1.70000000E+01  1.00000000E+00
  1.00000000E+00  1.00000000E+00
Nuclear QMom                               R   N=          12
  0.00000000E+00  0.00000000E+00  0.00000000E+00  0.00000000E+00  0.00000000E+00
  0.00000000E+00 -8.16500000E+00  0.00000000E+00 -8.16500000E+00  0.00000000E+00
  0.00000000E+00  0.00000000E+00
Nuclear GFac                               R   N=          12
  0.00000000E+00  0.00000000E+00  0.00000000E+00  0.00000000E+00  0.00000000E+00
  0.00000000E+00  8.21874000E-01  2.79284600E+00  8.21874000E-01  2.79284600E+00
  2.79284600E+00  2.79284600E+00
MicOpt                                     I   N=          12
          -1          -1          -1          -1          -1          -1
          -1          -1          -1          -1          -1          -1
Number of residues                         I                0
Number of secondary structures             I                0
Redundant internal dimensions              I   N=           4
          54          12          18          24
Redundant internal coordinate indices      I   N=         216
           1           2           0           0           1           6
           0           0           1           8           0           0
           2           3           0           0           2           9
           0           0           3           4           0           0
           3          10           0           0           4           5
           0           0           4          11           0           0
           5           6           0           0           5          12
           0           0           6           7           0           0
           2           1           6           0           2           1
           8           0           6           1           8           0
           1           2           3           0           1           2
           9           0           3           2           9           0
           2           3           4           0           2           3
          10           0           4           3          10           0
           3           4           5           0           3           4
          11           0           5           4          11           0
           4           5           6           0           4           5
          12           0           6           5          12           0
           1           6           5           0           1           6
           7           0           5           6           7           0
           6           1           2           3           6           1
           2           9           8           1           2           3
           8           1           2           9           2           1
           6           5           2           1           6           7
           8           1           6           5           8           1
           6           7           1           2           3           4
           1           2           3          10           9           2
           3           4           9           2           3          10
           2           3           4           5           2           3
           4          11          10           3           4           5
          10           3           4          11           3           4
           5           6           3           4           5          12
          11           4           5           6          11           4
           5          12           4           5           6           1
           4           5           6           7          12           5
           6           1          12           5           6           7
Redundant internal coordinates             R   N=          54
  2.62247747E+00  2.62247747E+00  2.04533655E+00  2.61887368E+00  3.31983906E+00
  2.62539721E+00  2.04946610E+00  2.62539721E+00  2.05365910E+00  2.61887368E+00
  2.04946610E+00  3.31983906E+00  2.05160094E+00  2.11579218E+00  2.11579218E+00
  2.13247148E+00  2.06277853E+00  2.08793529E+00  2.06805459E+00  2.10914814E+00
  2.10598257E+00  2.11371753E+00  2.08473389E+00  2.08473389E+00  2.06805459E+00
  2.10598257E+00  2.10914814E+00  2.13247148E+00  2.06277853E+00  2.08793529E+00
  0.00000000E+00  3.14159265E+00  3.14159265E+00 -0.00000000E+00 -0.00000000E+00
  3.14159265E+00  3.14159265E+00  0.00000000E+00  0.00000000E+00  3.14159265E+00
  3.14159265E+00  0.00000000E+00 -0.00000000E+00  3.14159265E+00  3.14159265E+00
  0.00000000E+00  0.00000000E+00  3.14159265E+00  3.14159265E+00  0.00000000E+00
  0.00000000E+00  3.14159265E+00  3.14159265E+00 -0.00000000E+00
ZRed-IntVec                                I   N=          54
           0           0           0           0           0           0
           0           0           0           0           0           0
           0           0           0           0           0           0
           0           0           0           0           0           0
           0           0           0           0           0           0
           0           0           0           0           0           0
           0           0           0           0           0           0
           0           0           0           0           0           0
           0           0           0           0           0           0
ZRed-FPVec                                 R   N=          54
  0.00000000E+00  0.00000000E+00  0.00000000E+00  0.00000000E+00  0.00000000E+00
  0.00000000E+00  0.00000000E+00  0.00000000E+00  0.00000000E+00  0.00000000E+00
  0.00000000E+00  0.00000000E+00  0.00000000E+00  0.00000000E+00  0.00000000E+00
  0.00000000E+00  0.00000000E+00  0.00000000E+00  0.00000000E+00  0.00000000E+00
  0.00000000E+00  0.00000000E+00  0.00000000E+00  0.00000000E+00  0.00000000E+00
  0.00000000E+00  0.00000000E+00  0.00000000E+00  0.00000000E+00  0.00000000E+00
  0.00000000E+00  0.00000000E+00  0.00000000E+00  0.00000000E+00  0.00000000E+00
  0.00000000E+00  0.00000000E+00  0.00000000E+00  0.00000000E+00  0.00000000E+00
  0.00000000E+00  0.00000000E+00  0.00000000E+00  0.00000000E+00  0.00000000E+00
  0.00000000E+00  0.00000000E+00  0.00000000E+00  0.00000000E+00  0.00000000E+00
  0.00000000E+00  0.00000000E+00  0.00000000E+00  0.00000000E+00
ZRed-Constraint1                           R   N=          54
  2.62247747E+00  2.62247747E+00  2.04533655E+00  2.61887368E+00  3.31983906E+00
  2.62539721E+00  2.04946610E+00  2.62539721E+00  2.05365910E+00  2.61887368E+00
  2.04946610E+00  3.31983906E+00  2.05160094E+00  2.11579218E+00  2.11579218E+00
  2.13247148E+00  2.06277853E+00  2.08793529E+00  2.06805459E+00  2.10914814E+00
  2.10598257E+00  2.11371753E+00  2.08473389E+00  2.08473389E+00  2.06805459E+00
  2.10598257E+00  2.10914814E+00  2.13247148E+00  2.06277853E+00  2.08793529E+00
  0.00000000E+00  3.14159265E+00  3.14159265E+00 -0.00000000E+00 -0.00000000E+00
  3.14159265E+00  3.14159265E+00  0.00000000E+00 -0.00000000E+00  3.14159265E+00
  3.14159265E+00  0.00000000E+00 -0.00000000E+00  3.14159265E+00  3.14159265E+00
 -0.00000000E+00  0.00000000E+00  3.14159265E+00  3.14159265E+00 -0.00000000E+00
 -0.00000000E+00  3.14159265E+00  3.14159265E+00 -0.00000000E+00
ZRed-Constraint2                           R   N=          54
  2.63889606E+00  2.63889609E+00  2.07311895E+00  2.64829992E+00  3.42434105E+00
  2.64359818E+00  2.07346106E+00  2.64359793E+00  2.07664949E+00  2.64829996E+00
  2.07346307E+00  3.42434098E+00  2.07716278E+00  2.10301127E+00  2.10301126E+00
  2.10974280E+00  2.13000424E+00  2.04343826E+00  2.08591997E+00  2.09912549E+00
  2.09813985E+00  2.09788227E+00  2.09265150E+00  2.09265153E+00  2.08592038E+00
  2.09813938E+00  2.09912555E+00  2.10974242E+00  2.13000429E+00  2.04343860E+00
  0.00000000E+00  3.14159265E+00  3.14159265E+00 -0.00000000E+00 -0.00000000E+00
  3.14159265E+00  3.14159265E+00  0.00000000E+00 -0.00000000E+00  3.14159265E+00
  3.14159265E+00  0.00000000E+00 -0.00000000E+00  3.14159265E+00  3.14159265E+00
 -0.00000000E+00  0.00000000E+00  3.14159265E+00  3.14159265E+00 -0.00000000E+00
 -0.00000000E+00  3.14159265E+00  3.14159265E+00 -0.00000000E+00
SymInf integers                            I   N=          26
           2           4           1           1           1          -1
          -1           1          -1           1           1           1
          -1           1           0           0           0           0
           0           0           0           0           0           0
           0           0
RotTr to input orientation                 R   N=          12
 -1.99591543E-16 -2.40099150E-16 -1.00000000E+00 -4.76029601E-01 -8.79429258E-01
  3.06161700E-16 -8.79429258E-01  4.76029601E-01  6.12323400E-17 -4.78264989E+00
 -3.17075860E-01 -2.75292562E-16
Number of contracted shells                I               82
Number of primitive shells                 I              156
Pure/Cartesian d shells                    I                0
Pure/Cartesian f shells                    I                0
Highest angular momentum                   I                2
Largest degree of contraction              I                6
Shell types                                I   N=          82
           0          -1          -1          -1          -1          -2
           0          -1          -1          -1          -1          -2
           0          -1          -1          -1          -1          -2
           0          -1          -1          -1          -1          -2
           0          -1          -1          -1          -1          -2
           0          -1          -1          -1          -1          -2
           0           0           0           0           0           0
          -1           1           1           1           1           1
          -2           0           0           0           0           1
           0           0           0           0           0           0
          -1           1           1           1           1           1
          -2           0           0           0           0           1
           0           0           0           0           1           0
           0           0           0           1
Number of primitives per shell             I   N=          82
           6           3           1           1           1           1
           6           3           1           1           1           1
           6           3           1           1           1           1
           6           3           1           1           1           1
           6           3           1           1           1           1
           6           3           1           1           1           1
           6           3           1           1           1           1
           1           5           2           1           1           1
           1           3           1           1           1           1
           6           3           1           1           1           1
           1           5           2           1           1           1
           1           3           1           1           1           1
           3           1           1           1           1           3
           1           1           1           1
Shell to atom map                          I   N=          82
           1           1           1           1           1           1
           2           2           2           2           2           2
           3           3           3           3           3           3
           4           4           4           4           4           4
           5           5           5           5           5           5
           6           6           6           6           6           6
           7           7           7           7           7           7
           7           7           7           7           7           7
           7           8           8           8           8           8
           9           9           9           9           9           9
           9           9           9           9           9           9
           9          10          10          10          10          10
          11          11          11          11          11          12
          12          12          12          12
Primitive exponents                        R   N=         156
  4.56324000E+03  6.82024000E+02  1.54973000E+02  4.44553000E+01  1.30290000E+01
  1.82773000E+00  2.09642000E+01  4.80331000E+00  1.45933000E+00  4.83456000E-01
  1.45585000E-01  4.38000000E-02  6.26000000E-01  4.56324000E+03  6.82024000E+02
  1.54973000E+02  4.44553000E+01  1.30290000E+01  1.82773000E+00  2.09642000E+01
  4.80331000E+00  1.45933000E+00  4.83456000E-01  1.45585000E-01  4.38000000E-02
  6.26000000E-01  4.56324000E+03  6.82024000E+02  1.54973000E+02  4.44553000E+01
  1.30290000E+01  1.82773000E+00  2.09642000E+01  4.80331000E+00  1.45933000E+00
  4.83456000E-01  1.45585000E-01  4.38000000E-02  6.26000000E-01  4.56324000E+03
  6.82024000E+02  1.54973000E+02  4.44553000E+01  1.30290000E+01  1.82773000E+00
  2.09642000E+01  4.80331000E+00  1.45933000E+00  4.83456000E-01  1.45585000E-01
  4.38000000E-02  6.26000000E-01  4.56324000E+03  6.82024000E+02  1.54973000E+02
  4.44553000E+01  1.30290000E+01  1.82773000E+00  2.09642000E+01  4.80331000E+00
  1.45933000E+00  4.83456000E-01  1.45585000E-01  4.38000000E-02  6.26000000E-01
  4.56324000E+03  6.82024000E+02  1.54973000E+02  4.44553000E+01  1.30290000E+01
  1.82773000E+00  2.09642000E+01  4.80331000E+00  1.45933000E+00  4.83456000E-01
  1.45585000E-01  4.38000000E-02  6.26000000E-01  1.05819000E+05  1.58720000E+04
  3.61965000E+03  1.03080000E+03  3.39908000E+02  1.24538000E+02  1.24538000E+02
  4.95135000E+01  2.08056000E+01  6.58346000E+00  2.56468000E+00  5.59763000E-01
  1.83273000E-01  4.83000000E-02  5.89776000E+02  1.39849000E+02  4.51413000E+01
  1.68733000E+01  2.77152000E+00  6.74110000E+00  2.77152000E+00  1.02387000E+00
  3.81368000E-01  1.09437000E-01  7.50000000E-01  3.38650000E+01  5.09479000E+00
  1.15879000E+00  3.25840000E-01  1.02741000E-01  3.60000000E-02  7.50000000E-01
  1.05819000E+05  1.58720000E+04  3.61965000E+03  1.03080000E+03  3.39908000E+02
  1.24538000E+02  1.24538000E+02  4.95135000E+01  2.08056000E+01  6.58346000E+00
  2.56468000E+00  5.59763000E-01  1.83273000E-01  4.83000000E-02  5.89776000E+02
  1.39849000E+02  4.51413000E+01  1.68733000E+01  2.77152000E+00  6.74110000E+00
  2.77152000E+00  1.02387000E+00  3.81368000E-01  1.09437000E-01  7.50000000E-01
  3.38650000E+01  5.09479000E+00  1.15879000E+00  3.25840000E-01  1.02741000E-01
  3.60000000E-02  7.50000000E-01  3.38650000E+01  5.09479000E+00  1.15879000E+00
  3.25840000E-01  1.02741000E-01  3.60000000E-02  7.50000000E-01  3.38650000E+01
  5.09479000E+00  1.15879000E+00  3.25840000E-01  1.02741000E-01  3.60000000E-02
  7.50000000E-01
Contraction coefficients                   R   N=         156
  1.96665025E-03  1.52306019E-02  7.61269097E-02  2.60801033E-01  6.16462078E-01
  2.21006028E-01  1.14660081E-01  9.19999648E-01 -3.03068213E-03  1.00000000E+00
  1.00000000E+00  1.00000000E+00  1.00000000E+00  1.96665025E-03  1.52306019E-02
  7.61269097E-02  2.60801033E-01  6.16462078E-01  2.21006028E-01  1.14660081E-01
  9.19999648E-01 -3.03068213E-03  1.00000000E+00  1.00000000E+00  1.00000000E+00
  1.00000000E+00  1.96665025E-03  1.52306019E-02  7.61269097E-02  2.60801033E-01
  6.16462078E-01  2.21006028E-01  1.14660081E-01  9.19999648E-01 -3.03068213E-03
  1.00000000E+00  1.00000000E+00  1.00000000E+00  1.00000000E+00  1.96665025E-03
  1.52306019E-02  7.61269097E-02  2.60801033E-01  6.16462078E-01  2.21006028E-01
  1.14660081E-01  9.19999648E-01 -3.03068213E-03  1.00000000E+00  1.00000000E+00
  1.00000000E+00  1.00000000E+00  1.96665025E-03  1.52306019E-02  7.61269097E-02
  2.60801033E-01  6.16462078E-01  2.21006028E-01  1.14660081E-01  9.19999648E-01
 -3.03068213E-03  1.00000000E+00  1.00000000E+00  1.00000000E+00  1.00000000E+00
  1.96665025E-03  1.52306019E-02  7.61269097E-02  2.60801033E-01  6.16462078E-01
  2.21006028E-01  1.14660081E-01  9.19999648E-01 -3.03068213E-03  1.00000000E+00
  1.00000000E+00  1.00000000E+00  1.00000000E+00  7.38000247E-04  5.71800191E-03
  2.94950099E-02  1.17286039E-01  3.62949121E-01  5.84149195E-01  1.34176973E-01
  6.24249876E-01  2.91755942E-01  1.00000000E+00  1.00000000E+00  1.00000000E+00
  1.00000000E+00  1.00000000E+00  3.66556935E-03  2.83679194E-02  1.24756603E-01
  3.39654631E-01  7.47585963E-01 -1.57224381E+00  9.92388882E-01  1.00000000E+00
  1.00000000E+00  1.00000000E+00  1.00000000E+00  2.54938145E-02  1.90373109E-01
  8.52161486E-01  1.00000000E+00  1.00000000E+00  1.00000000E+00  1.00000000E+00
  7.38000247E-04  5.71800191E-03  2.94950099E-02  1.17286039E-01  3.62949121E-01
  5.84149195E-01  1.34176973E-01  6.24249876E-01  2.91755942E-01  1.00000000E+00
  1.00000000E+00  1.00000000E+00  1.00000000E+00  1.00000000E+00  3.66556935E-03
  2.83679194E-02  1.24756603E-01  3.39654631E-01  7.47585963E-01 -1.57224381E+00
  9.92388882E-01  1.00000000E+00  1.00000000E+00  1.00000000E+00  1.00000000E+00
  2.54938145E-02  1.90373109E-01  8.52161486E-01  1.00000000E+00  1.00000000E+00
  1.00000000E+00  1.00000000E+00  2.54938145E-02  1.90373109E-01  8.52161486E-01
  1.00000000E+00  1.00000000E+00  1.00000000E+00  1.00000000E+00  2.54938145E-02
  1.90373109E-01  8.52161486E-01  1.00000000E+00  1.00000000E+00  1.00000000E+00
  1.00000000E+00
P(S=P) Contraction coefficients            R   N=         156
  0.00000000E+00  0.00000000E+00  0.00000000E+00  0.00000000E+00  0.00000000E+00
  0.00000000E+00  4.02486927E-02  2.37593957E-01  8.15853851E-01  1.00000000E+00
  1.00000000E+00  1.00000000E+00  0.00000000E+00  0.00000000E+00  0.00000000E+00
  0.00000000E+00  0.00000000E+00  0.00000000E+00  0.00000000E+00  4.02486927E-02
  2.37593957E-01  8.15853851E-01  1.00000000E+00  1.00000000E+00  1.00000000E+00
  0.00000000E+00  0.00000000E+00  0.00000000E+00  0.00000000E+00  0.00000000E+00
  0.00000000E+00  0.00000000E+00  4.02486927E-02  2.37593957E-01  8.15853851E-01
  1.00000000E+00  1.00000000E+00  1.00000000E+00  0.00000000E+00  0.00000000E+00
  0.00000000E+00  0.00000000E+00  0.00000000E+00  0.00000000E+00  0.00000000E+00
  4.02486927E-02  2.37593957E-01  8.15853851E-01  1.00000000E+00  1.00000000E+00
  1.00000000E+00  0.00000000E+00  0.00000000E+00  0.00000000E+00  0.00000000E+00
  0.00000000E+00  0.00000000E+00  0.00000000E+00  4.02486927E-02  2.37593957E-01
  8.15853851E-01  1.00000000E+00  1.00000000E+00  1.00000000E+00  0.00000000E+00
  0.00000000E+00  0.00000000E+00  0.00000000E+00  0.00000000E+00  0.00000000E+00
  0.00000000E+00  4.02486927E-02  2.37593957E-01  8.15853851E-01  1.00000000E+00
  1.00000000E+00  1.00000000E+00  0.00000000E+00  0.00000000E+00  0.00000000E+00
  0.00000000E+00  0.00000000E+00  0.00000000E+00  0.00000000E+00  0.00000000E+00
  0.00000000E+00  0.00000000E+00  0.00000000E+00  0.00000000E+00  0.00000000E+00
  0.00000000E+00  1.00000000E+00  0.00000000E+00  0.00000000E+00  0.00000000E+00
  0.00000000E+00  0.00000000E+00  0.00000000E+00  0.00000000E+00  0.00000000E+00
  0.00000000E+00  0.00000000E+00  0.00000000E+00  0.00000000E+00  0.00000000E+00
  0.00000000E+00  0.00000000E+00  0.00000000E+00  0.00000000E+00  0.00000000E+00
  0.00000000E+00  0.00000000E+00  0.00000000E+00  0.00000000E+00  0.00000000E+00
  0.00000000E+00  0.00000000E+00  0.00000000E+00  0.00000000E+00  0.00000000E+00
  0.00000000E+00  0.00000000E+00  0.00000000E+00  1.00000000E+00  0.00000000E+00
  0.00000000E+00  0.00000000E+00  0.00000000E+00  0.00000000E+00  0.00000000E+00
  0.00000000E+00  0.00000000E+00  0.00000000E+00  0.00000000E+00  0.00000000E+00
  0.00000000E+00  0.00000000E+00  0.00000000E+00  0.00000000E+00  0.00000000E+00
  0.00000000E+00  0.00000000E+00  0.00000000E+00  0.00000000E+00  0.00000000E+00
  0.00000000E+00  0.00000000E+00  0.00000000E+00  0.00000000E+00  0.00000000E+00
  0.00000000E+00  0.00000000E+00  0.00000000E+00  0.00000000E+00  0.00000000E+00
  0.00000000E+00
Coordinates of each shell                  R   N=         246
 -2.46519033E-32 -2.22044605E-16  1.34769742E+00 -2.46519033E-32 -2.22044605E-16
  1.34769742E+00 -2.46519033E-32 -2.22044605E-16  1.34769742E+00 -2.46519033E-32
 -2.22044605E-16  1.34769742E+00 -2.46519033E-32 -2.22044605E-16  1.34769742E+00
 -2.46519033E-32 -2.22044605E-16  1.34769742E+00 -1.97215226E-31 -2.24255769E+00
 -1.18330571E-02 -1.97215226E-31 -2.24255769E+00 -1.18330571E-02 -1.97215226E-31
 -2.24255769E+00 -1.18330571E-02 -1.97215226E-31 -2.24255769E+00 -1.18330571E-02
 -1.97215226E-31 -2.24255769E+00 -1.18330571E-02 -1.97215226E-31 -2.24255769E+00
 -1.18330571E-02 -5.91645679E-31 -2.28623663E+00 -2.63034246E+00 -5.91645679E-31
 -2.28623663E+00 -2.63034246E+00 -5.91645679E-31 -2.28623663E+00 -2.63034246E+00
 -5.91645679E-31 -2.28623663E+00 -2.63034246E+00 -5.91645679E-31 -2.28623663E+00
 -2.63034246E+00 -5.91645679E-31 -2.28623663E+00 -2.63034246E+00 -2.46519033E-31
  2.22044605E-16 -3.92101382E+00 -2.46519033E-31  2.22044605E-16 -3.92101382E+00
 -2.46519033E-31  2.22044605E-16 -3.92101382E+00 -2.46519033E-31  2.22044605E-16
 -3.92101382E+00 -2.46519033E-31  2.22044605E-16 -3.92101382E+00 -2.46519033E-31
  2.22044605E-16 -3.92101382E+00 -2.79983237E-16  2.28623663E+00 -2.63034246E+00
 -2.79983237E-16  2.28623663E+00 -2.63034246E+00 -2.79983237E-16  2.28623663E+00
 -2.63034246E+00 -2.79983237E-16  2.28623663E+00 -2.63034246E+00 -2.79983237E-16
  2.28623663E+00 -2.63034246E+00 -2.79983237E-16  2.28623663E+00 -2.63034246E+00
 -2.74634109E-16  2.24255769E+00 -1.18330571E-02 -2.74634109E-16  2.24255769E+00
 -1.18330571E-02 -2.74634109E-16  2.24255769E+00 -1.18330571E-02 -2.74634109E-16
  2.24255769E+00 -1.18330571E-02 -2.74634109E-16  2.24255769E+00 -1.18330571E-02
 -2.74634109E-16  2.24255769E+00 -1.18330571E-02  9.86076132E-31  5.10050929E+00
  1.67738097E+00  9.86076132E-31  5.10050929E+00  1.67738097E+00  9.86076132E-31
  5.10050929E+00  1.67738097E+00  9.86076132E-31  5.10050929E+00  1.67738097E+00
  9.86076132E-31  5.10050929E+00  1.67738097E+00  9.86076132E-31  5.10050929E+00
  1.67738097E+00  9.86076132E-31  5.10050929E+00  1.67738097E+00  9.86076132E-31
  5.10050929E+00  1.67738097E+00  9.86076132E-31  5.10050929E+00  1.67738097E+00
  9.86076132E-31  5.10050929E+00  1.67738097E+00  9.86076132E-31  5.10050929E+00
  1.67738097E+00  9.86076132E-31  5.10050929E+00  1.67738097E+00  9.86076132E-31
  5.10050929E+00  1.67738097E+00  1.72563323E-31  2.22044605E-16  3.39303397E+00
  1.72563323E-31  2.22044605E-16  3.39303397E+00  1.72563323E-31  2.22044605E-16
  3.39303397E+00  1.72563323E-31  2.22044605E-16  3.39303397E+00  1.72563323E-31
  2.22044605E-16  3.39303397E+00  6.24632238E-16 -5.10050929E+00  1.67738097E+00
  6.24632238E-16 -5.10050929E+00  1.67738097E+00  6.24632238E-16 -5.10050929E+00
  1.67738097E+00  6.24632238E-16 -5.10050929E+00  1.67738097E+00  6.24632238E-16
 -5.10050929E+00  1.67738097E+00  6.24632238E-16 -5.10050929E+00  1.67738097E+00
  6.24632238E-16 -5.10050929E+00  1.67738097E+00  6.24632238E-16 -5.10050929E+00
  1.67738097E+00  6.24632238E-16 -5.10050929E+00  1.67738097E+00  6.24632238E-16
 -5.10050929E+00  1.67738097E+00  6.24632238E-16 -5.10050929E+00  1.67738097E+00
  6.24632238E-16 -5.10050929E+00  1.67738097E+00  6.24632238E-16 -5.10050929E+00
  1.67738097E+00 -7.88860905E-31 -4.06309694E+00 -3.65165472E+00 -7.88860905E-31
 -4.06309694E+00 -3.65165472E+00 -7.88860905E-31 -4.06309694E+00 -3.65165472E+00
 -7.88860905E-31 -4.06309694E+00 -3.65165472E+00 -7.88860905E-31 -4.06309694E+00
 -3.65165472E+00 -3.45126646E-31 -4.44089210E-16 -5.97467292E+00 -3.45126646E-31
 -4.44089210E-16 -5.97467292E+00 -3.45126646E-31 -4.44089210E-16 -5.97467292E+00
 -3.45126646E-31 -4.44089210E-16 -5.97467292E+00 -3.45126646E-31 -4.44089210E-16
 -5.97467292E+00 -4.97585867E-16  4.06309694E+00 -3.65165472E+00 -4.97585867E-16
  4.06309694E+00 -3.65165472E+00 -4.97585867E-16  4.06309694E+00 -3.65165472E+00
 -4.97585867E-16  4.06309694E+00 -3.65165472E+00 -4.97585867E-16  4.06309694E+00
 -3.65165472E+00
Num ILSW                                   I              100
ILSW                                       I   N=         100
           1           0           0           0           2           0
           0           0           0           0        4336          -1
           5           0           0           0           2           0
           0           0           1           0           1           0
           1           0           0           0           0           0
           0           0      100000           0          -1           0
           0           0           0           0           0           0
           0           0           0           1           0           0
           0 -2000000000           1           0           0           0
           0           0           4          52           0           0
           0           0          55           0           0           0
           0           0           0           0           0           1
           0           0           0           0           0           0
           0           0           0           0           0           0