2-Chloro-Benzene Anion Radical (14)                                     
Freq      UM062X                                                      6-311++G(d,p)       
Number of atoms                            I               12
Info1-9                                    I   N=           9
           8           6        1002           0           0         100
           6          18       -5502
Full Title                                 C   N=           3
2-Chloro-Benzene Anion Radical (14) 
Route                                      C   N=           5
# opt freq 6-311++g(d,p) guess=read geom=allcheck m062x     
Charge                                     I               -1
Multiplicity                               I                2
Number of electrons                        I               75
Number of alpha electrons                  I               38
Number of beta electrons                   I               37
Number of basis functions                  I              220
Number of independent functions            I              220
Number of point charges in /Mol/           I                0
Number of translation vectors              I                0
Atomic numbers                             I   N=          12
           6           6           6           6           6           6
          17           1           1          17           1           1
Nuclear charges                            R   N=          12
  6.00000000E+00  6.00000000E+00  6.00000000E+00  6.00000000E+00  6.00000000E+00
  6.00000000E+00  1.70000000E+01  1.00000000E+00  1.00000000E+00  1.70000000E+01
  1.00000000E+00  1.00000000E+00
Current cartesian coordinates              R   N=          36
  2.28768145E+00  1.31314140E+00  2.46519033E-32  2.28768058E+00 -1.31314065E+00
  7.39557099E-32  2.54672132E-05 -2.59190853E+00  0.00000000E+00 -2.28763224E+00
 -1.31314730E+00 -1.23259516E-31 -2.28763075E+00  1.31314588E+00 -7.39557099E-32
  2.54672132E-05  2.59190818E+00 -9.86076132E-32 -3.24081097E-05  5.90067971E+00
  9.86076132E-32  4.05435995E+00  2.34639583E+00  9.86076132E-32  4.05436058E+00
 -2.34639523E+00  4.93038066E-32 -3.32259671E-05 -5.90067936E+00 -9.86076132E-32
 -4.05425195E+00 -2.34645388E+00 -1.47911420E-31 -4.05425265E+00  2.34645352E+00
  0.00000000E+00
Number of symbols in /Mol/                 I                0
Force Field                                I                0
Atom Types                                 C   N=          12
                                                            
                                                            
                        
Int Atom Types                             I   N=          12
           0           0           0           0           0           0
           0           0           0           0           0           0
MM charges                                 R   N=          12
  0.00000000E+00  0.00000000E+00  0.00000000E+00  0.00000000E+00  0.00000000E+00
  0.00000000E+00  0.00000000E+00  0.00000000E+00  0.00000000E+00  0.00000000E+00
  0.00000000E+00  0.00000000E+00
Integer atomic weights                     I   N=          12
          12          12          12          12          12          12
          35           1           1          35           1           1
Real atomic weights                        R   N=          12
  1.20000000E+01  1.20000000E+01  1.20000000E+01  1.20000000E+01  1.20000000E+01
  1.20000000E+01  3.49688527E+01  1.00782504E+00  1.00782504E+00  3.49688527E+01
  1.00782504E+00  1.00782504E+00
Atom fragment info                         I   N=          12
           0           0           0           0           0           0
           0           0           0           0           0           0
Atom residue num                           I   N=          12
           0           0           0           0           0           0
           0           0           0           0           0           0
Nuclear spins                              I   N=          12
           0           0           0           0           0           0
           3           1           1           3           1           1
Nuclear ZEff                               R   N=          12
 -3.60000000E+00 -3.60000000E+00 -3.60000000E+00 -3.60000000E+00 -3.60000000E+00
 -3.60000000E+00 -1.42400000E+01 -1.00000000E+00 -1.00000000E+00 -1.42400000E+01
 -1.00000000E+00 -1.00000000E+00
Nuclear ZNuc                               R   N=          12
  6.00000000E+00  6.00000000E+00  6.00000000E+00  6.00000000E+00  6.00000000E+00
  6.00000000E+00  1.70000000E+01  1.00000000E+00  1.00000000E+00  1.70000000E+01
  1.00000000E+00  1.00000000E+00
Nuclear QMom                               R   N=          12
  0.00000000E+00  0.00000000E+00  0.00000000E+00  0.00000000E+00  0.00000000E+00
  0.00000000E+00 -8.16500000E+00  0.00000000E+00  0.00000000E+00 -8.16500000E+00
  0.00000000E+00  0.00000000E+00
Nuclear GFac                               R   N=          12
  0.00000000E+00  0.00000000E+00  0.00000000E+00  0.00000000E+00  0.00000000E+00
  0.00000000E+00  8.21874000E-01  2.79284600E+00  2.79284600E+00  8.21874000E-01
  2.79284600E+00  2.79284600E+00
MicOpt                                     I   N=          12
          -1          -1          -1          -1          -1          -1
          -1          -1          -1          -1          -1          -1
Number of residues                         I                0
Number of secondary structures             I                0
Redundant internal dimensions              I   N=           4
          54          12          18          24
Redundant internal coordinate indices      I   N=         216
           1           2           0           0           1           6
           0           0           1           8           0           0
           2           3           0           0           2           9
           0           0           3           4           0           0
           3          10           0           0           4           5
           0           0           4          11           0           0
           5           6           0           0           5          12
           0           0           6           7           0           0
           2           1           6           0           2           1
           8           0           6           1           8           0
           1           2           3           0           1           2
           9           0           3           2           9           0
           2           3           4           0           2           3
          10           0           4           3          10           0
           3           4           5           0           3           4
          11           0           5           4          11           0
           4           5           6           0           4           5
          12           0           6           5          12           0
           1           6           5           0           1           6
           7           0           5           6           7           0
           6           1           2           3           6           1
           2           9           8           1           2           3
           8           1           2           9           2           1
           6           5           2           1           6           7
           8           1           6           5           8           1
           6           7           1           2           3           4
           1           2           3          10           9           2
           3           4           9           2           3          10
           2           3           4           5           2           3
           4          11          10           3           4           5
          10           3           4          11           3           4
           5           6           3           4           5          12
          11           4           5           6          11           4
           5          12           4           5           6           1
           4           5           6           7          12           5
           6           1          12           5           6           7
Redundant internal coordinates             R   N=          54
  2.62628206E+00  2.62080415E+00  2.04664790E+00  2.62080392E+00  2.04664927E+00
  2.62080294E+00  3.30877083E+00  2.62629318E+00  2.04662349E+00  2.62080216E+00
  2.04662590E+00  3.30877153E+00  2.08051176E+00  2.10000724E+00  2.10266630E+00
  2.08051295E+00  2.10000627E+00  2.10266608E+00  2.12216276E+00  2.08053036E+00
  2.08049219E+00  2.08050936E+00  2.10263197E+00  2.10004397E+00  2.08051113E+00
  2.10004275E+00  2.10263144E+00  2.12216265E+00  2.08052959E+00  2.08049307E+00
  0.00000000E+00  3.14159265E+00  3.14159265E+00  0.00000000E+00 -0.00000000E+00
  3.14159265E+00  3.14159265E+00 -0.00000000E+00 -0.00000000E+00  3.14159265E+00
  3.14159265E+00 -0.00000000E+00 -0.00000000E+00  3.14159265E+00  3.14159265E+00
  0.00000000E+00  0.00000000E+00  3.14159265E+00  3.14159265E+00  0.00000000E+00
 -0.00000000E+00  3.14159265E+00  3.14159265E+00  0.00000000E+00
ZRed-IntVec                                I   N=          54
           0           0           0           0           0           0
           0           0           0           0           0           0
           0           0           0           0           0           0
           0           0           0           0           0           0
           0           0           0           0           0           0
           0           0           0           0           0           0
           0           0           0           0           0           0
           0           0           0           0           0           0
           0           0           0           0           0           0
ZRed-FPVec                                 R   N=          54
  0.00000000E+00  0.00000000E+00  0.00000000E+00  0.00000000E+00  0.00000000E+00
  0.00000000E+00  0.00000000E+00  0.00000000E+00  0.00000000E+00  0.00000000E+00
  0.00000000E+00  0.00000000E+00  0.00000000E+00  0.00000000E+00  0.00000000E+00
  0.00000000E+00  0.00000000E+00  0.00000000E+00  0.00000000E+00  0.00000000E+00
  0.00000000E+00  0.00000000E+00  0.00000000E+00  0.00000000E+00  0.00000000E+00
  0.00000000E+00  0.00000000E+00  0.00000000E+00  0.00000000E+00  0.00000000E+00
  0.00000000E+00  0.00000000E+00  0.00000000E+00  0.00000000E+00  0.00000000E+00
  0.00000000E+00  0.00000000E+00  0.00000000E+00  0.00000000E+00  0.00000000E+00
  0.00000000E+00  0.00000000E+00  0.00000000E+00  0.00000000E+00  0.00000000E+00
  0.00000000E+00  0.00000000E+00  0.00000000E+00  0.00000000E+00  0.00000000E+00
  0.00000000E+00  0.00000000E+00  0.00000000E+00  0.00000000E+00
ZRed-Constraint1                           R   N=          54
  2.62628206E+00  2.62080415E+00  2.04664790E+00  2.62080392E+00  2.04664927E+00
  2.62080294E+00  3.30877083E+00  2.62629318E+00  2.04662349E+00  2.62080216E+00
  2.04662590E+00  3.30877153E+00  2.08051176E+00  2.10000724E+00  2.10266630E+00
  2.08051295E+00  2.10000627E+00  2.10266608E+00  2.12216276E+00  2.08053036E+00
  2.08049219E+00  2.08050936E+00  2.10263197E+00  2.10004397E+00  2.08051113E+00
  2.10004275E+00  2.10263144E+00  2.12216265E+00  2.08052959E+00  2.08049307E+00
 -0.00000000E+00  3.14159265E+00  3.14159265E+00  0.00000000E+00  0.00000000E+00
  3.14159265E+00  3.14159265E+00 -0.00000000E+00  0.00000000E+00  3.14159265E+00
  3.14159265E+00 -0.00000000E+00 -0.00000000E+00  3.14159265E+00  3.14159265E+00
  0.00000000E+00  0.00000000E+00  3.14159265E+00  3.14159265E+00 -0.00000000E+00
 -0.00000000E+00  3.14159265E+00  3.14159265E+00  0.00000000E+00
ZRed-Constraint2                           R   N=          54
  2.62945625E+00  2.63851995E+00  2.07588627E+00  2.63851495E+00  2.07539036E+00
  2.63851723E+00  3.40769533E+00  2.62944407E+00  2.07565680E+00  2.63850655E+00
  2.07486765E+00  3.40769595E+00  2.08149287E+00  2.11352773E+00  2.08816471E+00
  2.08150604E+00  2.11352173E+00  2.08815754E+00  2.12018348E+00  2.08150069E+00
  2.08150113E+00  2.08149302E+00  2.08816457E+00  2.11352772E+00  2.08151353E+00
  2.11351910E+00  2.08815268E+00  2.12018168E+00  2.08150282E+00  2.08150082E+00
 -0.00000000E+00  3.14159265E+00  3.14159265E+00  0.00000000E+00 -0.00000000E+00
  3.14159265E+00  3.14159265E+00  0.00000000E+00  0.00000000E+00  3.14159265E+00
  3.14159265E+00  0.00000000E+00 -0.00000000E+00  3.14159265E+00  3.14159265E+00
 -0.00000000E+00 -0.00000000E+00  3.14159265E+00  3.14159265E+00  0.00000000E+00
  0.00000000E+00  3.14159265E+00  3.14159265E+00  0.00000000E+00
SymInf integers                            I   N=          26
           1           2           1           1           1           1
           1          -1           0           0           0           0
           0           0           0           0           0           0
           0           0           0           0           0           0
           0           0
RotTr to input orientation                 R   N=          12
 -5.23593249E-01  8.51968373E-01 -1.41209231E-23 -8.51968373E-01 -5.23593249E-01
 -1.22464680E-16 -1.04336042E-16 -6.41216677E-17  1.00000000E+00 -3.72821185E+00
 -8.87850891E-01 -1.87387639E-20
Number of contracted shells                I               82
Number of primitive shells                 I              156
Pure/Cartesian d shells                    I                0
Pure/Cartesian f shells                    I                0
Highest angular momentum                   I                2
Largest degree of contraction              I                6
Shell types                                I   N=          82
           0          -1          -1          -1          -1          -2
           0          -1          -1          -1          -1          -2
           0          -1          -1          -1          -1          -2
           0          -1          -1          -1          -1          -2
           0          -1          -1          -1          -1          -2
           0          -1          -1          -1          -1          -2
           0           0           0           0           0           0
          -1           1           1           1           1           1
          -2           0           0           0           0           1
           0           0           0           0           1           0
           0           0           0           0           0          -1
           1           1           1           1           1          -2
           0           0           0           0           1           0
           0           0           0           1
Number of primitives per shell             I   N=          82
           6           3           1           1           1           1
           6           3           1           1           1           1
           6           3           1           1           1           1
           6           3           1           1           1           1
           6           3           1           1           1           1
           6           3           1           1           1           1
           6           3           1           1           1           1
           1           5           2           1           1           1
           1           3           1           1           1           1
           3           1           1           1           1           6
           3           1           1           1           1           1
           5           2           1           1           1           1
           3           1           1           1           1           3
           1           1           1           1
Shell to atom map                          I   N=          82
           1           1           1           1           1           1
           2           2           2           2           2           2
           3           3           3           3           3           3
           4           4           4           4           4           4
           5           5           5           5           5           5
           6           6           6           6           6           6
           7           7           7           7           7           7
           7           7           7           7           7           7
           7           8           8           8           8           8
           9           9           9           9           9          10
          10          10          10          10          10          10
          10          10          10          10          10          10
          11          11          11          11          11          12
          12          12          12          12
Primitive exponents                        R   N=         156
  4.56324000E+03  6.82024000E+02  1.54973000E+02  4.44553000E+01  1.30290000E+01
  1.82773000E+00  2.09642000E+01  4.80331000E+00  1.45933000E+00  4.83456000E-01
  1.45585000E-01  4.38000000E-02  6.26000000E-01  4.56324000E+03  6.82024000E+02
  1.54973000E+02  4.44553000E+01  1.30290000E+01  1.82773000E+00  2.09642000E+01
  4.80331000E+00  1.45933000E+00  4.83456000E-01  1.45585000E-01  4.38000000E-02
  6.26000000E-01  4.56324000E+03  6.82024000E+02  1.54973000E+02  4.44553000E+01
  1.30290000E+01  1.82773000E+00  2.09642000E+01  4.80331000E+00  1.45933000E+00
  4.83456000E-01  1.45585000E-01  4.38000000E-02  6.26000000E-01  4.56324000E+03
  6.82024000E+02  1.54973000E+02  4.44553000E+01  1.30290000E+01  1.82773000E+00
  2.09642000E+01  4.80331000E+00  1.45933000E+00  4.83456000E-01  1.45585000E-01
  4.38000000E-02  6.26000000E-01  4.56324000E+03  6.82024000E+02  1.54973000E+02
  4.44553000E+01  1.30290000E+01  1.82773000E+00  2.09642000E+01  4.80331000E+00
  1.45933000E+00  4.83456000E-01  1.45585000E-01  4.38000000E-02  6.26000000E-01
  4.56324000E+03  6.82024000E+02  1.54973000E+02  4.44553000E+01  1.30290000E+01
  1.82773000E+00  2.09642000E+01  4.80331000E+00  1.45933000E+00  4.83456000E-01
  1.45585000E-01  4.38000000E-02  6.26000000E-01  1.05819000E+05  1.58720000E+04
  3.61965000E+03  1.03080000E+03  3.39908000E+02  1.24538000E+02  1.24538000E+02
  4.95135000E+01  2.08056000E+01  6.58346000E+00  2.56468000E+00  5.59763000E-01
  1.83273000E-01  4.83000000E-02  5.89776000E+02  1.39849000E+02  4.51413000E+01
  1.68733000E+01  2.77152000E+00  6.74110000E+00  2.77152000E+00  1.02387000E+00
  3.81368000E-01  1.09437000E-01  7.50000000E-01  3.38650000E+01  5.09479000E+00
  1.15879000E+00  3.25840000E-01  1.02741000E-01  3.60000000E-02  7.50000000E-01
  3.38650000E+01  5.09479000E+00  1.15879000E+00  3.25840000E-01  1.02741000E-01
  3.60000000E-02  7.50000000E-01  1.05819000E+05  1.58720000E+04  3.61965000E+03
  1.03080000E+03  3.39908000E+02  1.24538000E+02  1.24538000E+02  4.95135000E+01
  2.08056000E+01  6.58346000E+00  2.56468000E+00  5.59763000E-01  1.83273000E-01
  4.83000000E-02  5.89776000E+02  1.39849000E+02  4.51413000E+01  1.68733000E+01
  2.77152000E+00  6.74110000E+00  2.77152000E+00  1.02387000E+00  3.81368000E-01
  1.09437000E-01  7.50000000E-01  3.38650000E+01  5.09479000E+00  1.15879000E+00
  3.25840000E-01  1.02741000E-01  3.60000000E-02  7.50000000E-01  3.38650000E+01
  5.09479000E+00  1.15879000E+00  3.25840000E-01  1.02741000E-01  3.60000000E-02
  7.50000000E-01
Contraction coefficients                   R   N=         156
  1.96665025E-03  1.52306019E-02  7.61269097E-02  2.60801033E-01  6.16462078E-01
  2.21006028E-01  1.14660081E-01  9.19999648E-01 -3.03068213E-03  1.00000000E+00
  1.00000000E+00  1.00000000E+00  1.00000000E+00  1.96665025E-03  1.52306019E-02
  7.61269097E-02  2.60801033E-01  6.16462078E-01  2.21006028E-01  1.14660081E-01
  9.19999648E-01 -3.03068213E-03  1.00000000E+00  1.00000000E+00  1.00000000E+00
  1.00000000E+00  1.96665025E-03  1.52306019E-02  7.61269097E-02  2.60801033E-01
  6.16462078E-01  2.21006028E-01  1.14660081E-01  9.19999648E-01 -3.03068213E-03
  1.00000000E+00  1.00000000E+00  1.00000000E+00  1.00000000E+00  1.96665025E-03
  1.52306019E-02  7.61269097E-02  2.60801033E-01  6.16462078E-01  2.21006028E-01
  1.14660081E-01  9.19999648E-01 -3.03068213E-03  1.00000000E+00  1.00000000E+00
  1.00000000E+00  1.00000000E+00  1.96665025E-03  1.52306019E-02  7.61269097E-02
  2.60801033E-01  6.16462078E-01  2.21006028E-01  1.14660081E-01  9.19999648E-01
 -3.03068213E-03  1.00000000E+00  1.00000000E+00  1.00000000E+00  1.00000000E+00
  1.96665025E-03  1.52306019E-02  7.61269097E-02  2.60801033E-01  6.16462078E-01
  2.21006028E-01  1.14660081E-01  9.19999648E-01 -3.03068213E-03  1.00000000E+00
  1.00000000E+00  1.00000000E+00  1.00000000E+00  7.38000247E-04  5.71800191E-03
  2.94950099E-02  1.17286039E-01  3.62949121E-01  5.84149195E-01  1.34176973E-01
  6.24249876E-01  2.91755942E-01  1.00000000E+00  1.00000000E+00  1.00000000E+00
  1.00000000E+00  1.00000000E+00  3.66556935E-03  2.83679194E-02  1.24756603E-01
  3.39654631E-01  7.47585963E-01 -1.57224381E+00  9.92388882E-01  1.00000000E+00
  1.00000000E+00  1.00000000E+00  1.00000000E+00  2.54938145E-02  1.90373109E-01
  8.52161486E-01  1.00000000E+00  1.00000000E+00  1.00000000E+00  1.00000000E+00
  2.54938145E-02  1.90373109E-01  8.52161486E-01  1.00000000E+00  1.00000000E+00
  1.00000000E+00  1.00000000E+00  7.38000247E-04  5.71800191E-03  2.94950099E-02
  1.17286039E-01  3.62949121E-01  5.84149195E-01  1.34176973E-01  6.24249876E-01
  2.91755942E-01  1.00000000E+00  1.00000000E+00  1.00000000E+00  1.00000000E+00
  1.00000000E+00  3.66556935E-03  2.83679194E-02  1.24756603E-01  3.39654631E-01
  7.47585963E-01 -1.57224381E+00  9.92388882E-01  1.00000000E+00  1.00000000E+00
  1.00000000E+00  1.00000000E+00  2.54938145E-02  1.90373109E-01  8.52161486E-01
  1.00000000E+00  1.00000000E+00  1.00000000E+00  1.00000000E+00  2.54938145E-02
  1.90373109E-01  8.52161486E-01  1.00000000E+00  1.00000000E+00  1.00000000E+00
  1.00000000E+00
P(S=P) Contraction coefficients            R   N=         156
  0.00000000E+00  0.00000000E+00  0.00000000E+00  0.00000000E+00  0.00000000E+00
  0.00000000E+00  4.02486927E-02  2.37593957E-01  8.15853851E-01  1.00000000E+00
  1.00000000E+00  1.00000000E+00  0.00000000E+00  0.00000000E+00  0.00000000E+00
  0.00000000E+00  0.00000000E+00  0.00000000E+00  0.00000000E+00  4.02486927E-02
  2.37593957E-01  8.15853851E-01  1.00000000E+00  1.00000000E+00  1.00000000E+00
  0.00000000E+00  0.00000000E+00  0.00000000E+00  0.00000000E+00  0.00000000E+00
  0.00000000E+00  0.00000000E+00  4.02486927E-02  2.37593957E-01  8.15853851E-01
  1.00000000E+00  1.00000000E+00  1.00000000E+00  0.00000000E+00  0.00000000E+00
  0.00000000E+00  0.00000000E+00  0.00000000E+00  0.00000000E+00  0.00000000E+00
  4.02486927E-02  2.37593957E-01  8.15853851E-01  1.00000000E+00  1.00000000E+00
  1.00000000E+00  0.00000000E+00  0.00000000E+00  0.00000000E+00  0.00000000E+00
  0.00000000E+00  0.00000000E+00  0.00000000E+00  4.02486927E-02  2.37593957E-01
  8.15853851E-01  1.00000000E+00  1.00000000E+00  1.00000000E+00  0.00000000E+00
  0.00000000E+00  0.00000000E+00  0.00000000E+00  0.00000000E+00  0.00000000E+00
  0.00000000E+00  4.02486927E-02  2.37593957E-01  8.15853851E-01  1.00000000E+00
  1.00000000E+00  1.00000000E+00  0.00000000E+00  0.00000000E+00  0.00000000E+00
  0.00000000E+00  0.00000000E+00  0.00000000E+00  0.00000000E+00  0.00000000E+00
  0.00000000E+00  0.00000000E+00  0.00000000E+00  0.00000000E+00  0.00000000E+00
  0.00000000E+00  1.00000000E+00  0.00000000E+00  0.00000000E+00  0.00000000E+00
  0.00000000E+00  0.00000000E+00  0.00000000E+00  0.00000000E+00  0.00000000E+00
  0.00000000E+00  0.00000000E+00  0.00000000E+00  0.00000000E+00  0.00000000E+00
  0.00000000E+00  0.00000000E+00  0.00000000E+00  0.00000000E+00  0.00000000E+00
  0.00000000E+00  0.00000000E+00  0.00000000E+00  0.00000000E+00  0.00000000E+00
  0.00000000E+00  0.00000000E+00  0.00000000E+00  0.00000000E+00  0.00000000E+00
  0.00000000E+00  0.00000000E+00  0.00000000E+00  0.00000000E+00  0.00000000E+00
  0.00000000E+00  0.00000000E+00  0.00000000E+00  0.00000000E+00  0.00000000E+00
  1.00000000E+00  0.00000000E+00  0.00000000E+00  0.00000000E+00  0.00000000E+00
  0.00000000E+00  0.00000000E+00  0.00000000E+00  0.00000000E+00  0.00000000E+00
  0.00000000E+00  0.00000000E+00  0.00000000E+00  0.00000000E+00  0.00000000E+00
  0.00000000E+00  0.00000000E+00  0.00000000E+00  0.00000000E+00  0.00000000E+00
  0.00000000E+00  0.00000000E+00  0.00000000E+00  0.00000000E+00  0.00000000E+00
  0.00000000E+00
Coordinates of each shell                  R   N=         246
  2.28768145E+00  1.31314140E+00  2.46519033E-32  2.28768145E+00  1.31314140E+00
  2.46519033E-32  2.28768145E+00  1.31314140E+00  2.46519033E-32  2.28768145E+00
  1.31314140E+00  2.46519033E-32  2.28768145E+00  1.31314140E+00  2.46519033E-32
  2.28768145E+00  1.31314140E+00  2.46519033E-32  2.28768058E+00 -1.31314065E+00
  4.93038066E-32  2.28768058E+00 -1.31314065E+00  4.93038066E-32  2.28768058E+00
 -1.31314065E+00  4.93038066E-32  2.28768058E+00 -1.31314065E+00  4.93038066E-32
  2.28768058E+00 -1.31314065E+00  4.93038066E-32  2.28768058E+00 -1.31314065E+00
  4.93038066E-32  2.54672132E-05 -2.59190853E+00  0.00000000E+00  2.54672132E-05
 -2.59190853E+00  0.00000000E+00  2.54672132E-05 -2.59190853E+00  0.00000000E+00
  2.54672132E-05 -2.59190853E+00  0.00000000E+00  2.54672132E-05 -2.59190853E+00
  0.00000000E+00  2.54672132E-05 -2.59190853E+00  0.00000000E+00 -2.28763224E+00
 -1.31314730E+00 -7.39557099E-32 -2.28763224E+00 -1.31314730E+00 -7.39557099E-32
 -2.28763224E+00 -1.31314730E+00 -7.39557099E-32 -2.28763224E+00 -1.31314730E+00
 -7.39557099E-32 -2.28763224E+00 -1.31314730E+00 -7.39557099E-32 -2.28763224E+00
 -1.31314730E+00 -7.39557099E-32 -2.28763075E+00  1.31314588E+00 -4.93038066E-32
 -2.28763075E+00  1.31314588E+00 -4.93038066E-32 -2.28763075E+00  1.31314588E+00
 -4.93038066E-32 -2.28763075E+00  1.31314588E+00 -4.93038066E-32 -2.28763075E+00
  1.31314588E+00 -4.93038066E-32 -2.28763075E+00  1.31314588E+00 -4.93038066E-32
  2.54672132E-05  2.59190818E+00 -4.93038066E-32  2.54672132E-05  2.59190818E+00
 -4.93038066E-32  2.54672132E-05  2.59190818E+00 -4.93038066E-32  2.54672132E-05
  2.59190818E+00 -4.93038066E-32  2.54672132E-05  2.59190818E+00 -4.93038066E-32
  2.54672132E-05  2.59190818E+00 -4.93038066E-32 -3.24081097E-05  5.90067971E+00
  1.97215226E-31 -3.24081097E-05  5.90067971E+00  1.97215226E-31 -3.24081097E-05
  5.90067971E+00  1.97215226E-31 -3.24081097E-05  5.90067971E+00  1.97215226E-31
 -3.24081097E-05  5.90067971E+00  1.97215226E-31 -3.24081097E-05  5.90067971E+00
  1.97215226E-31 -3.24081097E-05  5.90067971E+00  1.97215226E-31 -3.24081097E-05
  5.90067971E+00  1.97215226E-31 -3.24081097E-05  5.90067971E+00  1.97215226E-31
 -3.24081097E-05  5.90067971E+00  1.97215226E-31 -3.24081097E-05  5.90067971E+00
  1.97215226E-31 -3.24081097E-05  5.90067971E+00  1.97215226E-31 -3.24081097E-05
  5.90067971E+00  1.97215226E-31  4.05435995E+00  2.34639583E+00  4.93038066E-32
  4.05435995E+00  2.34639583E+00  4.93038066E-32  4.05435995E+00  2.34639583E+00
  4.93038066E-32  4.05435995E+00  2.34639583E+00  4.93038066E-32  4.05435995E+00
  2.34639583E+00  4.93038066E-32  4.05436058E+00 -2.34639523E+00  4.93038066E-32
  4.05436058E+00 -2.34639523E+00  4.93038066E-32  4.05436058E+00 -2.34639523E+00
  4.93038066E-32  4.05436058E+00 -2.34639523E+00  4.93038066E-32  4.05436058E+00
 -2.34639523E+00  4.93038066E-32 -3.32259671E-05 -5.90067936E+00 -9.86076132E-32
 -3.32259671E-05 -5.90067936E+00 -9.86076132E-32 -3.32259671E-05 -5.90067936E+00
 -9.86076132E-32 -3.32259671E-05 -5.90067936E+00 -9.86076132E-32 -3.32259671E-05
 -5.90067936E+00 -9.86076132E-32 -3.32259671E-05 -5.90067936E+00 -9.86076132E-32
 -3.32259671E-05 -5.90067936E+00 -9.86076132E-32 -3.32259671E-05 -5.90067936E+00
 -9.86076132E-32 -3.32259671E-05 -5.90067936E+00 -9.86076132E-32 -3.32259671E-05
 -5.90067936E+00 -9.86076132E-32 -3.32259671E-05 -5.90067936E+00 -9.86076132E-32
 -3.32259671E-05 -5.90067936E+00 -9.86076132E-32 -3.32259671E-05 -5.90067936E+00
 -9.86076132E-32 -4.05425195E+00 -2.34645388E+00 -9.86076132E-32 -4.05425195E+00
 -2.34645388E+00 -9.86076132E-32 -4.05425195E+00 -2.34645388E+00 -9.86076132E-32
 -4.05425195E+00 -2.34645388E+00 -9.86076132E-32 -4.05425195E+00 -2.34645388E+00
 -9.86076132E-32 -4.05425265E+00  2.34645352E+00  0.00000000E+00 -4.05425265E+00
  2.34645352E+00  0.00000000E+00 -4.05425265E+00  2.34645352E+00  0.00000000E+00
 -4.05425265E+00  2.34645352E+00  0.00000000E+00 -4.05425265E+00  2.34645352E+00
  0.00000000E+00
Num ILSW                                   I              100
ILSW                                       I   N=         100
           1           0           0           0           2           0
           0           0           0           0        4336          -1
           5           0           0           0           2           0
           0           0           1           0           1           0
           1           0           0           0           0           0
           0           0      100000           0          -1           0
           0           0           0           0           0           0
           0           0           0           1           0           0
           0 -2000000000           1           0           0           0
           0           0           4          52           0           0
           0           0          55           0           0           0
           0           0           0           0           0           1
           0           0           0           0           0           0
           0           0           0           0           0           0