2-Chloro-Benzene (14)                                                   
Freq      RM062X                                                      6-311++G(d,p)       
Number of atoms                            I               12
Info1-9                                    I   N=           9
           8           6        1002           0           0         100
           6          18       -5502
Full Title                                 C   N=           2
2-Chloro-Benzene (14)   
Route                                      C   N=           5
# opt freq 6-311++g(d,p) guess=read geom=allcheck m062x     
Charge                                     I                0
Multiplicity                               I                1
Number of electrons                        I               74
Number of alpha electrons                  I               37
Number of beta electrons                   I               37
Number of basis functions                  I              220
Number of independent functions            I              220
Number of point charges in /Mol/           I                0
Number of translation vectors              I                0
Atomic numbers                             I   N=          12
           6           6           6           6           6           6
          17           1           1          17           1           1
Nuclear charges                            R   N=          12
  6.00000000E+00  6.00000000E+00  6.00000000E+00  6.00000000E+00  6.00000000E+00
  6.00000000E+00  1.70000000E+01  1.00000000E+00  1.00000000E+00  1.70000000E+01
  1.00000000E+00  1.00000000E+00
Current cartesian coordinates              R   N=          36
  2.28504139E+00  1.31292619E+00 -1.23259516E-31  2.28504114E+00 -1.31292612E+00
  1.72563323E-31 -1.48901623E-07 -2.60227713E+00  1.47911420E-31 -2.28504145E+00
 -1.31292604E+00  7.39557099E-32 -2.28504130E+00  1.31292607E+00 -1.23259516E-31
 -1.48901624E-07  2.60227714E+00 -1.47911420E-31  9.85530262E-08  5.89405556E+00
 -1.97215226E-31  4.04627425E+00  2.35251405E+00  4.93038066E-32  4.04627382E+00
 -2.35251410E+00  3.45126646E-31  6.35547002E-08 -5.89405560E+00  3.94430453E-31
 -4.04627401E+00 -2.35251381E+00  1.47911420E-31 -4.04627373E+00  2.35251391E+00
 -1.97215226E-31
Number of symbols in /Mol/                 I                0
Force Field                                I                0
Atom Types                                 C   N=          12
                                                            
                                                            
                        
Int Atom Types                             I   N=          12
           0           0           0           0           0           0
           0           0           0           0           0           0
MM charges                                 R   N=          12
  0.00000000E+00  0.00000000E+00  0.00000000E+00  0.00000000E+00  0.00000000E+00
  0.00000000E+00  0.00000000E+00  0.00000000E+00  0.00000000E+00  0.00000000E+00
  0.00000000E+00  0.00000000E+00
Integer atomic weights                     I   N=          12
          12          12          12          12          12          12
          35           1           1          35           1           1
Real atomic weights                        R   N=          12
  1.20000000E+01  1.20000000E+01  1.20000000E+01  1.20000000E+01  1.20000000E+01
  1.20000000E+01  3.49688527E+01  1.00782504E+00  1.00782504E+00  3.49688527E+01
  1.00782504E+00  1.00782504E+00
Atom fragment info                         I   N=          12
           0           0           0           0           0           0
           0           0           0           0           0           0
Atom residue num                           I   N=          12
           0           0           0           0           0           0
           0           0           0           0           0           0
Nuclear spins                              I   N=          12
           0           0           0           0           0           0
           3           1           1           3           1           1
Nuclear ZEff                               R   N=          12
 -3.60000000E+00 -3.60000000E+00 -3.60000000E+00 -3.60000000E+00 -3.60000000E+00
 -3.60000000E+00 -1.42400000E+01 -1.00000000E+00 -1.00000000E+00 -1.42400000E+01
 -1.00000000E+00 -1.00000000E+00
Nuclear ZNuc                               R   N=          12
  6.00000000E+00  6.00000000E+00  6.00000000E+00  6.00000000E+00  6.00000000E+00
  6.00000000E+00  1.70000000E+01  1.00000000E+00  1.00000000E+00  1.70000000E+01
  1.00000000E+00  1.00000000E+00
Nuclear QMom                               R   N=          12
  0.00000000E+00  0.00000000E+00  0.00000000E+00  0.00000000E+00  0.00000000E+00
  0.00000000E+00 -8.16500000E+00  0.00000000E+00  0.00000000E+00 -8.16500000E+00
  0.00000000E+00  0.00000000E+00
Nuclear GFac                               R   N=          12
  0.00000000E+00  0.00000000E+00  0.00000000E+00  0.00000000E+00  0.00000000E+00
  0.00000000E+00  8.21874000E-01  2.79284600E+00  2.79284600E+00  8.21874000E-01
  2.79284600E+00  2.79284600E+00
MicOpt                                     I   N=          12
          -1          -1          -1          -1          -1          -1
          -1          -1          -1          -1          -1          -1
Number of residues                         I                0
Number of secondary structures             I                0
Redundant internal dimensions              I   N=           4
          54          12          18          24
Redundant internal coordinate indices      I   N=         216
           1           2           0           0           1           6
           0           0           1           8           0           0
           2           3           0           0           2           9
           0           0           3           4           0           0
           3          10           0           0           4           5
           0           0           4          11           0           0
           5           6           0           0           5          12
           0           0           6           7           0           0
           2           1           6           0           2           1
           8           0           6           1           8           0
           1           2           3           0           1           2
           9           0           3           2           9           0
           2           3           4           0           2           3
          10           0           4           3          10           0
           3           4           5           0           3           4
          11           0           5           4          11           0
           4           5           6           0           4           5
          12           0           6           5          12           0
           1           6           5           0           1           6
           7           0           5           6           7           0
           6           1           2           3           6           1
           2           9           8           1           2           3
           8           1           2           9           2           1
           6           5           2           1           6           7
           8           1           6           5           8           1
           6           7           1           2           3           4
           1           2           3          10           9           2
           3           4           9           2           3          10
           2           3           4           5           2           3
           4          11          10           3           4           5
          10           3           4          11           3           4
           5           6           3           4           5          12
          11           4           5           6          11           4
           5          12           4           5           6           1
           4           5           6           7          12           5
           6           1          12           5           6           7
Redundant internal coordinates             R   N=          54
  2.62585231E+00  2.62370744E+00  2.04516114E+00  2.62370725E+00  2.04516106E+00
  2.62370730E+00  3.29177847E+00  2.62585211E+00  2.04516084E+00  2.62370716E+00
  2.04516077E+00  3.29177842E+00  2.08451947E+00  2.10402445E+00  2.09464139E+00
  2.08451973E+00  2.10402435E+00  2.09464122E+00  2.11414601E+00  2.08451957E+00
  2.08451972E+00  2.08451960E+00  2.09464126E+00  2.10402445E+00  2.08451974E+00
  2.10402440E+00  2.09464118E+00  2.11414606E+00  2.08451949E+00  2.08451976E+00
  0.00000000E+00  3.14159265E+00  3.14159265E+00 -0.00000000E+00 -0.00000000E+00
  3.14159265E+00  3.14159265E+00  0.00000000E+00  0.00000000E+00  3.14159265E+00
  3.14159265E+00 -0.00000000E+00 -0.00000000E+00  3.14159265E+00  3.14159265E+00
  0.00000000E+00  0.00000000E+00  3.14159265E+00  3.14159265E+00 -0.00000000E+00
  0.00000000E+00  3.14159265E+00  3.14159265E+00 -0.00000000E+00
ZRed-IntVec                                I   N=          54
           0           0           0           0           0           0
           0           0           0           0           0           0
           0           0           0           0           0           0
           0           0           0           0           0           0
           0           0           0           0           0           0
           0           0           0           0           0           0
           0           0           0           0           0           0
           0           0           0           0           0           0
           0           0           0           0           0           0
ZRed-FPVec                                 R   N=          54
  0.00000000E+00  0.00000000E+00  0.00000000E+00  0.00000000E+00  0.00000000E+00
  0.00000000E+00  0.00000000E+00  0.00000000E+00  0.00000000E+00  0.00000000E+00
  0.00000000E+00  0.00000000E+00  0.00000000E+00  0.00000000E+00  0.00000000E+00
  0.00000000E+00  0.00000000E+00  0.00000000E+00  0.00000000E+00  0.00000000E+00
  0.00000000E+00  0.00000000E+00  0.00000000E+00  0.00000000E+00  0.00000000E+00
  0.00000000E+00  0.00000000E+00  0.00000000E+00  0.00000000E+00  0.00000000E+00
  0.00000000E+00  0.00000000E+00  0.00000000E+00  0.00000000E+00  0.00000000E+00
  0.00000000E+00  0.00000000E+00  0.00000000E+00  0.00000000E+00  0.00000000E+00
  0.00000000E+00  0.00000000E+00  0.00000000E+00  0.00000000E+00  0.00000000E+00
  0.00000000E+00  0.00000000E+00  0.00000000E+00  0.00000000E+00  0.00000000E+00
  0.00000000E+00  0.00000000E+00  0.00000000E+00  0.00000000E+00
ZRed-Constraint1                           R   N=          54
  2.62585231E+00  2.62370744E+00  2.04516114E+00  2.62370725E+00  2.04516106E+00
  2.62370730E+00  3.29177847E+00  2.62585211E+00  2.04516084E+00  2.62370716E+00
  2.04516077E+00  3.29177842E+00  2.08451947E+00  2.10402445E+00  2.09464139E+00
  2.08451973E+00  2.10402435E+00  2.09464122E+00  2.11414601E+00  2.08451957E+00
  2.08451972E+00  2.08451960E+00  2.09464126E+00  2.10402445E+00  2.08451974E+00
  2.10402440E+00  2.09464118E+00  2.11414606E+00  2.08451949E+00  2.08451976E+00
  0.00000000E+00  3.14159265E+00  3.14159265E+00 -0.00000000E+00 -0.00000000E+00
  3.14159265E+00  3.14159265E+00 -0.00000000E+00 -0.00000000E+00  3.14159265E+00
  3.14159265E+00  0.00000000E+00  0.00000000E+00  3.14159265E+00  3.14159265E+00
 -0.00000000E+00 -0.00000000E+00  3.14159265E+00  3.14159265E+00 -0.00000000E+00
 -0.00000000E+00  3.14159265E+00  3.14159265E+00  0.00000000E+00
ZRed-Constraint2                           R   N=          54
  2.63267386E+00  2.64301099E+00  2.08049966E+00  2.64301029E+00  2.08042276E+00
  2.64300813E+00  3.21058458E+00  2.63266906E+00  2.08032604E+00  2.64300725E+00
  2.08027624E+00  3.21058458E+00  2.08936246E+00  2.09240500E+00  2.10141785E+00
  2.08936391E+00  2.09240431E+00  2.10141709E+00  2.10445732E+00  2.08936409E+00
  2.08936390E+00  2.08936396E+00  2.10141743E+00  2.09240392E+00  2.08936578E+00
  2.09240308E+00  2.10141645E+00  2.10445719E+00  2.08936428E+00  2.08936384E+00
  0.00000000E+00  3.14159265E+00  3.14159265E+00  0.00000000E+00  0.00000000E+00
  3.14159265E+00  3.14159265E+00  0.00000000E+00  0.00000000E+00  3.14159265E+00
  3.14159265E+00  0.00000000E+00  0.00000000E+00  3.14159265E+00  3.14159265E+00
  0.00000000E+00  0.00000000E+00  3.14159265E+00  3.14159265E+00  0.00000000E+00
  0.00000000E+00  3.14159265E+00  3.14159265E+00  0.00000000E+00
SymInf integers                            I   N=          26
           1           2           1           1           1           1
           1          -1           0           0           0           0
           0           0           0           0           0           0
           0           0           0           0           0           0
           0           0
RotTr to input orientation                 R   N=          12
 -5.23593198E-01  8.51968405E-01  8.89843820E-25 -8.51968405E-01 -5.23593198E-01
  1.22464680E-16  1.04336038E-16  6.41216726E-17  1.00000000E+00 -3.72822492E+00
 -8.87829547E-01  1.97048334E-21
Number of contracted shells                I               82
Number of primitive shells                 I              156
Pure/Cartesian d shells                    I                0
Pure/Cartesian f shells                    I                0
Highest angular momentum                   I                2
Largest degree of contraction              I                6
Shell types                                I   N=          82
           0          -1          -1          -1          -1          -2
           0          -1          -1          -1          -1          -2
           0          -1          -1          -1          -1          -2
           0          -1          -1          -1          -1          -2
           0          -1          -1          -1          -1          -2
           0          -1          -1          -1          -1          -2
           0           0           0           0           0           0
          -1           1           1           1           1           1
          -2           0           0           0           0           1
           0           0           0           0           1           0
           0           0           0           0           0          -1
           1           1           1           1           1          -2
           0           0           0           0           1           0
           0           0           0           1
Number of primitives per shell             I   N=          82
           6           3           1           1           1           1
           6           3           1           1           1           1
           6           3           1           1           1           1
           6           3           1           1           1           1
           6           3           1           1           1           1
           6           3           1           1           1           1
           6           3           1           1           1           1
           1           5           2           1           1           1
           1           3           1           1           1           1
           3           1           1           1           1           6
           3           1           1           1           1           1
           5           2           1           1           1           1
           3           1           1           1           1           3
           1           1           1           1
Shell to atom map                          I   N=          82
           1           1           1           1           1           1
           2           2           2           2           2           2
           3           3           3           3           3           3
           4           4           4           4           4           4
           5           5           5           5           5           5
           6           6           6           6           6           6
           7           7           7           7           7           7
           7           7           7           7           7           7
           7           8           8           8           8           8
           9           9           9           9           9          10
          10          10          10          10          10          10
          10          10          10          10          10          10
          11          11          11          11          11          12
          12          12          12          12
Primitive exponents                        R   N=         156
  4.56324000E+03  6.82024000E+02  1.54973000E+02  4.44553000E+01  1.30290000E+01
  1.82773000E+00  2.09642000E+01  4.80331000E+00  1.45933000E+00  4.83456000E-01
  1.45585000E-01  4.38000000E-02  6.26000000E-01  4.56324000E+03  6.82024000E+02
  1.54973000E+02  4.44553000E+01  1.30290000E+01  1.82773000E+00  2.09642000E+01
  4.80331000E+00  1.45933000E+00  4.83456000E-01  1.45585000E-01  4.38000000E-02
  6.26000000E-01  4.56324000E+03  6.82024000E+02  1.54973000E+02  4.44553000E+01
  1.30290000E+01  1.82773000E+00  2.09642000E+01  4.80331000E+00  1.45933000E+00
  4.83456000E-01  1.45585000E-01  4.38000000E-02  6.26000000E-01  4.56324000E+03
  6.82024000E+02  1.54973000E+02  4.44553000E+01  1.30290000E+01  1.82773000E+00
  2.09642000E+01  4.80331000E+00  1.45933000E+00  4.83456000E-01  1.45585000E-01
  4.38000000E-02  6.26000000E-01  4.56324000E+03  6.82024000E+02  1.54973000E+02
  4.44553000E+01  1.30290000E+01  1.82773000E+00  2.09642000E+01  4.80331000E+00
  1.45933000E+00  4.83456000E-01  1.45585000E-01  4.38000000E-02  6.26000000E-01
  4.56324000E+03  6.82024000E+02  1.54973000E+02  4.44553000E+01  1.30290000E+01
  1.82773000E+00  2.09642000E+01  4.80331000E+00  1.45933000E+00  4.83456000E-01
  1.45585000E-01  4.38000000E-02  6.26000000E-01  1.05819000E+05  1.58720000E+04
  3.61965000E+03  1.03080000E+03  3.39908000E+02  1.24538000E+02  1.24538000E+02
  4.95135000E+01  2.08056000E+01  6.58346000E+00  2.56468000E+00  5.59763000E-01
  1.83273000E-01  4.83000000E-02  5.89776000E+02  1.39849000E+02  4.51413000E+01
  1.68733000E+01  2.77152000E+00  6.74110000E+00  2.77152000E+00  1.02387000E+00
  3.81368000E-01  1.09437000E-01  7.50000000E-01  3.38650000E+01  5.09479000E+00
  1.15879000E+00  3.25840000E-01  1.02741000E-01  3.60000000E-02  7.50000000E-01
  3.38650000E+01  5.09479000E+00  1.15879000E+00  3.25840000E-01  1.02741000E-01
  3.60000000E-02  7.50000000E-01  1.05819000E+05  1.58720000E+04  3.61965000E+03
  1.03080000E+03  3.39908000E+02  1.24538000E+02  1.24538000E+02  4.95135000E+01
  2.08056000E+01  6.58346000E+00  2.56468000E+00  5.59763000E-01  1.83273000E-01
  4.83000000E-02  5.89776000E+02  1.39849000E+02  4.51413000E+01  1.68733000E+01
  2.77152000E+00  6.74110000E+00  2.77152000E+00  1.02387000E+00  3.81368000E-01
  1.09437000E-01  7.50000000E-01  3.38650000E+01  5.09479000E+00  1.15879000E+00
  3.25840000E-01  1.02741000E-01  3.60000000E-02  7.50000000E-01  3.38650000E+01
  5.09479000E+00  1.15879000E+00  3.25840000E-01  1.02741000E-01  3.60000000E-02
  7.50000000E-01
Contraction coefficients                   R   N=         156
  1.96665025E-03  1.52306019E-02  7.61269097E-02  2.60801033E-01  6.16462078E-01
  2.21006028E-01  1.14660081E-01  9.19999648E-01 -3.03068213E-03  1.00000000E+00
  1.00000000E+00  1.00000000E+00  1.00000000E+00  1.96665025E-03  1.52306019E-02
  7.61269097E-02  2.60801033E-01  6.16462078E-01  2.21006028E-01  1.14660081E-01
  9.19999648E-01 -3.03068213E-03  1.00000000E+00  1.00000000E+00  1.00000000E+00
  1.00000000E+00  1.96665025E-03  1.52306019E-02  7.61269097E-02  2.60801033E-01
  6.16462078E-01  2.21006028E-01  1.14660081E-01  9.19999648E-01 -3.03068213E-03
  1.00000000E+00  1.00000000E+00  1.00000000E+00  1.00000000E+00  1.96665025E-03
  1.52306019E-02  7.61269097E-02  2.60801033E-01  6.16462078E-01  2.21006028E-01
  1.14660081E-01  9.19999648E-01 -3.03068213E-03  1.00000000E+00  1.00000000E+00
  1.00000000E+00  1.00000000E+00  1.96665025E-03  1.52306019E-02  7.61269097E-02
  2.60801033E-01  6.16462078E-01  2.21006028E-01  1.14660081E-01  9.19999648E-01
 -3.03068213E-03  1.00000000E+00  1.00000000E+00  1.00000000E+00  1.00000000E+00
  1.96665025E-03  1.52306019E-02  7.61269097E-02  2.60801033E-01  6.16462078E-01
  2.21006028E-01  1.14660081E-01  9.19999648E-01 -3.03068213E-03  1.00000000E+00
  1.00000000E+00  1.00000000E+00  1.00000000E+00  7.38000247E-04  5.71800191E-03
  2.94950099E-02  1.17286039E-01  3.62949121E-01  5.84149195E-01  1.34176973E-01
  6.24249876E-01  2.91755942E-01  1.00000000E+00  1.00000000E+00  1.00000000E+00
  1.00000000E+00  1.00000000E+00  3.66556935E-03  2.83679194E-02  1.24756603E-01
  3.39654631E-01  7.47585963E-01 -1.57224381E+00  9.92388882E-01  1.00000000E+00
  1.00000000E+00  1.00000000E+00  1.00000000E+00  2.54938145E-02  1.90373109E-01
  8.52161486E-01  1.00000000E+00  1.00000000E+00  1.00000000E+00  1.00000000E+00
  2.54938145E-02  1.90373109E-01  8.52161486E-01  1.00000000E+00  1.00000000E+00
  1.00000000E+00  1.00000000E+00  7.38000247E-04  5.71800191E-03  2.94950099E-02
  1.17286039E-01  3.62949121E-01  5.84149195E-01  1.34176973E-01  6.24249876E-01
  2.91755942E-01  1.00000000E+00  1.00000000E+00  1.00000000E+00  1.00000000E+00
  1.00000000E+00  3.66556935E-03  2.83679194E-02  1.24756603E-01  3.39654631E-01
  7.47585963E-01 -1.57224381E+00  9.92388882E-01  1.00000000E+00  1.00000000E+00
  1.00000000E+00  1.00000000E+00  2.54938145E-02  1.90373109E-01  8.52161486E-01
  1.00000000E+00  1.00000000E+00  1.00000000E+00  1.00000000E+00  2.54938145E-02
  1.90373109E-01  8.52161486E-01  1.00000000E+00  1.00000000E+00  1.00000000E+00
  1.00000000E+00
P(S=P) Contraction coefficients            R   N=         156
  0.00000000E+00  0.00000000E+00  0.00000000E+00  0.00000000E+00  0.00000000E+00
  0.00000000E+00  4.02486927E-02  2.37593957E-01  8.15853851E-01  1.00000000E+00
  1.00000000E+00  1.00000000E+00  0.00000000E+00  0.00000000E+00  0.00000000E+00
  0.00000000E+00  0.00000000E+00  0.00000000E+00  0.00000000E+00  4.02486927E-02
  2.37593957E-01  8.15853851E-01  1.00000000E+00  1.00000000E+00  1.00000000E+00
  0.00000000E+00  0.00000000E+00  0.00000000E+00  0.00000000E+00  0.00000000E+00
  0.00000000E+00  0.00000000E+00  4.02486927E-02  2.37593957E-01  8.15853851E-01
  1.00000000E+00  1.00000000E+00  1.00000000E+00  0.00000000E+00  0.00000000E+00
  0.00000000E+00  0.00000000E+00  0.00000000E+00  0.00000000E+00  0.00000000E+00
  4.02486927E-02  2.37593957E-01  8.15853851E-01  1.00000000E+00  1.00000000E+00
  1.00000000E+00  0.00000000E+00  0.00000000E+00  0.00000000E+00  0.00000000E+00
  0.00000000E+00  0.00000000E+00  0.00000000E+00  4.02486927E-02  2.37593957E-01
  8.15853851E-01  1.00000000E+00  1.00000000E+00  1.00000000E+00  0.00000000E+00
  0.00000000E+00  0.00000000E+00  0.00000000E+00  0.00000000E+00  0.00000000E+00
  0.00000000E+00  4.02486927E-02  2.37593957E-01  8.15853851E-01  1.00000000E+00
  1.00000000E+00  1.00000000E+00  0.00000000E+00  0.00000000E+00  0.00000000E+00
  0.00000000E+00  0.00000000E+00  0.00000000E+00  0.00000000E+00  0.00000000E+00
  0.00000000E+00  0.00000000E+00  0.00000000E+00  0.00000000E+00  0.00000000E+00
  0.00000000E+00  1.00000000E+00  0.00000000E+00  0.00000000E+00  0.00000000E+00
  0.00000000E+00  0.00000000E+00  0.00000000E+00  0.00000000E+00  0.00000000E+00
  0.00000000E+00  0.00000000E+00  0.00000000E+00  0.00000000E+00  0.00000000E+00
  0.00000000E+00  0.00000000E+00  0.00000000E+00  0.00000000E+00  0.00000000E+00
  0.00000000E+00  0.00000000E+00  0.00000000E+00  0.00000000E+00  0.00000000E+00
  0.00000000E+00  0.00000000E+00  0.00000000E+00  0.00000000E+00  0.00000000E+00
  0.00000000E+00  0.00000000E+00  0.00000000E+00  0.00000000E+00  0.00000000E+00
  0.00000000E+00  0.00000000E+00  0.00000000E+00  0.00000000E+00  0.00000000E+00
  1.00000000E+00  0.00000000E+00  0.00000000E+00  0.00000000E+00  0.00000000E+00
  0.00000000E+00  0.00000000E+00  0.00000000E+00  0.00000000E+00  0.00000000E+00
  0.00000000E+00  0.00000000E+00  0.00000000E+00  0.00000000E+00  0.00000000E+00
  0.00000000E+00  0.00000000E+00  0.00000000E+00  0.00000000E+00  0.00000000E+00
  0.00000000E+00  0.00000000E+00  0.00000000E+00  0.00000000E+00  0.00000000E+00
  0.00000000E+00
Coordinates of each shell                  R   N=         246
  2.28504139E+00  1.31292619E+00 -7.39557099E-32  2.28504139E+00  1.31292619E+00
 -7.39557099E-32  2.28504139E+00  1.31292619E+00 -7.39557099E-32  2.28504139E+00
  1.31292619E+00 -7.39557099E-32  2.28504139E+00  1.31292619E+00 -7.39557099E-32
  2.28504139E+00  1.31292619E+00 -7.39557099E-32  2.28504114E+00 -1.31292612E+00
  1.23259516E-31  2.28504114E+00 -1.31292612E+00  1.23259516E-31  2.28504114E+00
 -1.31292612E+00  1.23259516E-31  2.28504114E+00 -1.31292612E+00  1.23259516E-31
  2.28504114E+00 -1.31292612E+00  1.23259516E-31  2.28504114E+00 -1.31292612E+00
  1.23259516E-31 -1.48901623E-07 -2.60227713E+00  1.47911420E-31 -1.48901623E-07
 -2.60227713E+00  1.47911420E-31 -1.48901623E-07 -2.60227713E+00  1.47911420E-31
 -1.48901623E-07 -2.60227713E+00  1.47911420E-31 -1.48901623E-07 -2.60227713E+00
  1.47911420E-31 -1.48901623E-07 -2.60227713E+00  1.47911420E-31 -2.28504145E+00
 -1.31292604E+00  7.39557099E-32 -2.28504145E+00 -1.31292604E+00  7.39557099E-32
 -2.28504145E+00 -1.31292604E+00  7.39557099E-32 -2.28504145E+00 -1.31292604E+00
  7.39557099E-32 -2.28504145E+00 -1.31292604E+00  7.39557099E-32 -2.28504145E+00
 -1.31292604E+00  7.39557099E-32 -2.28504130E+00  1.31292607E+00 -9.86076132E-32
 -2.28504130E+00  1.31292607E+00 -9.86076132E-32 -2.28504130E+00  1.31292607E+00
 -9.86076132E-32 -2.28504130E+00  1.31292607E+00 -9.86076132E-32 -2.28504130E+00
  1.31292607E+00 -9.86076132E-32 -2.28504130E+00  1.31292607E+00 -9.86076132E-32
 -1.48901624E-07  2.60227714E+00 -9.86076132E-32 -1.48901624E-07  2.60227714E+00
 -9.86076132E-32 -1.48901624E-07  2.60227714E+00 -9.86076132E-32 -1.48901624E-07
  2.60227714E+00 -9.86076132E-32 -1.48901624E-07  2.60227714E+00 -9.86076132E-32
 -1.48901624E-07  2.60227714E+00 -9.86076132E-32  9.85530266E-08  5.89405556E+00
 -1.97215226E-31  9.85530266E-08  5.89405556E+00 -1.97215226E-31  9.85530266E-08
  5.89405556E+00 -1.97215226E-31  9.85530266E-08  5.89405556E+00 -1.97215226E-31
  9.85530266E-08  5.89405556E+00 -1.97215226E-31  9.85530266E-08  5.89405556E+00
 -1.97215226E-31  9.85530266E-08  5.89405556E+00 -1.97215226E-31  9.85530266E-08
  5.89405556E+00 -1.97215226E-31  9.85530266E-08  5.89405556E+00 -1.97215226E-31
  9.85530266E-08  5.89405556E+00 -1.97215226E-31  9.85530266E-08  5.89405556E+00
 -1.97215226E-31  9.85530266E-08  5.89405556E+00 -1.97215226E-31  9.85530266E-08
  5.89405556E+00 -1.97215226E-31  4.04627425E+00  2.35251405E+00  0.00000000E+00
  4.04627425E+00  2.35251405E+00  0.00000000E+00  4.04627425E+00  2.35251405E+00
  0.00000000E+00  4.04627425E+00  2.35251405E+00  0.00000000E+00  4.04627425E+00
  2.35251405E+00  0.00000000E+00  4.04627382E+00 -2.35251410E+00  2.46519033E-31
  4.04627382E+00 -2.35251410E+00  2.46519033E-31  4.04627382E+00 -2.35251410E+00
  2.46519033E-31  4.04627382E+00 -2.35251410E+00  2.46519033E-31  4.04627382E+00
 -2.35251410E+00  2.46519033E-31  6.35546997E-08 -5.89405560E+00  2.95822839E-31
  6.35546997E-08 -5.89405560E+00  2.95822839E-31  6.35546997E-08 -5.89405560E+00
  2.95822839E-31  6.35546997E-08 -5.89405560E+00  2.95822839E-31  6.35546997E-08
 -5.89405560E+00  2.95822839E-31  6.35546997E-08 -5.89405560E+00  2.95822839E-31
  6.35546997E-08 -5.89405560E+00  2.95822839E-31  6.35546997E-08 -5.89405560E+00
  2.95822839E-31  6.35546997E-08 -5.89405560E+00  2.95822839E-31  6.35546997E-08
 -5.89405560E+00  2.95822839E-31  6.35546997E-08 -5.89405560E+00  2.95822839E-31
  6.35546997E-08 -5.89405560E+00  2.95822839E-31  6.35546997E-08 -5.89405560E+00
  2.95822839E-31 -4.04627401E+00 -2.35251381E+00  9.86076132E-32 -4.04627401E+00
 -2.35251381E+00  9.86076132E-32 -4.04627401E+00 -2.35251381E+00  9.86076132E-32
 -4.04627401E+00 -2.35251381E+00  9.86076132E-32 -4.04627401E+00 -2.35251381E+00
  9.86076132E-32 -4.04627373E+00  2.35251391E+00 -1.97215226E-31 -4.04627373E+00
  2.35251391E+00 -1.97215226E-31 -4.04627373E+00  2.35251391E+00 -1.97215226E-31
 -4.04627373E+00  2.35251391E+00 -1.97215226E-31 -4.04627373E+00  2.35251391E+00
 -1.97215226E-31
Num ILSW                                   I              100
ILSW                                       I   N=         100
           0           0           0           0           2           0
           0           0           0           0        4336          -1
           5           0           0           0           2           0
           0           0           1           0           1           0
           1           0           0           0           0           0
           0           0      100000           0          -1           0
           0           0           0           0           0           0
           0           0           0           1           0           0
           0 -2000000000           1           0           0           0
           0           0           4          52           0           0
           0           0          55           0           0           0
           0           0           0           0           0           1
           0           0           0           0           0           0
           0           0           0           0           0           0