Neutral Radical (removed 2) 1_34                                        
Freq      UM062X                                                      6-311++G(d,p)       
Number of atoms                            I               11
Info1-9                                    I   N=           9
           8           6        1002           0           0         100
           6          18       -5502
Full Title                                 C   N=           3
Neutral Radical (removed 2) 1_34    
Route                                      C   N=           5
# opt freq 6-311++g(d,p) guess=read geom=allcheck m062x     
Charge                                     I                0
Multiplicity                               I                2
Number of electrons                        I               89
Number of alpha electrons                  I               45
Number of beta electrons                   I               44
Number of basis functions                  I              236
Number of independent functions            I              235
Number of point charges in /Mol/           I                0
Number of translation vectors              I                0
Atomic numbers                             I   N=          11
           6           6           6           6           6           6
          17          17          17           1           1
Nuclear charges                            R   N=          11
  6.00000000E+00  6.00000000E+00  6.00000000E+00  6.00000000E+00  6.00000000E+00
  6.00000000E+00  1.70000000E+01  1.70000000E+01  1.70000000E+01  1.00000000E+00
  1.00000000E+00
Current cartesian coordinates              R   N=          33
  2.19461840E+00  2.36898140E-01 -2.46519033E-32  1.11022302E-16  1.60723995E+00
 -1.23259516E-31 -2.26437672E+00  2.41208708E-01 -4.93038066E-32 -2.20102715E+00
 -2.38984875E+00  1.38666956E-31  7.69784937E-02 -3.69248059E+00  1.47911420E-31
  2.33907921E+00 -2.34265419E+00  1.47911420E-31  5.23489863E+00 -3.87648619E+00
  1.97215226E-31  8.98317861E-02  4.87144961E+00 -2.46519033E-31 -5.14904872E+00
  1.78101740E+00 -9.86076132E-32 -3.96982899E+00 -3.41538358E+00  1.23259516E-31
  1.11606789E-01 -5.73847009E+00  1.97215226E-31
Number of symbols in /Mol/                 I                0
Force Field                                I                0
Atom Types                                 C   N=          11
                                                            
                                                            
            
Int Atom Types                             I   N=          11
           0           0           0           0           0           0
           0           0           0           0           0
MM charges                                 R   N=          11
  0.00000000E+00  0.00000000E+00  0.00000000E+00  0.00000000E+00  0.00000000E+00
  0.00000000E+00  0.00000000E+00  0.00000000E+00  0.00000000E+00  0.00000000E+00
  0.00000000E+00
Integer atomic weights                     I   N=          11
          12          12          12          12          12          12
          35          35          35           1           1
Real atomic weights                        R   N=          11
  1.20000000E+01  1.20000000E+01  1.20000000E+01  1.20000000E+01  1.20000000E+01
  1.20000000E+01  3.49688527E+01  3.49688527E+01  3.49688527E+01  1.00782504E+00
  1.00782504E+00
Atom fragment info                         I   N=          11
           0           0           0           0           0           0
           0           0           0           0           0
Atom residue num                           I   N=          11
           0           0           0           0           0           0
           0           0           0           0           0
Nuclear spins                              I   N=          11
           0           0           0           0           0           0
           3           3           3           1           1
Nuclear ZEff                               R   N=          11
 -3.60000000E+00 -3.60000000E+00 -3.60000000E+00 -3.60000000E+00 -3.60000000E+00
 -3.60000000E+00 -1.42400000E+01 -1.42400000E+01 -1.42400000E+01 -1.00000000E+00
 -1.00000000E+00
Nuclear ZNuc                               R   N=          11
  6.00000000E+00  6.00000000E+00  6.00000000E+00  6.00000000E+00  6.00000000E+00
  6.00000000E+00  1.70000000E+01  1.70000000E+01  1.70000000E+01  1.00000000E+00
  1.00000000E+00
Nuclear QMom                               R   N=          11
  0.00000000E+00  0.00000000E+00  0.00000000E+00  0.00000000E+00  0.00000000E+00
  0.00000000E+00 -8.16500000E+00 -8.16500000E+00 -8.16500000E+00  0.00000000E+00
  0.00000000E+00
Nuclear GFac                               R   N=          11
  0.00000000E+00  0.00000000E+00  0.00000000E+00  0.00000000E+00  0.00000000E+00
  0.00000000E+00  8.21874000E-01  8.21874000E-01  8.21874000E-01  2.79284600E+00
  2.79284600E+00
MicOpt                                     I   N=          11
          -1          -1          -1          -1          -1          -1
          -1          -1          -1          -1          -1
Number of residues                         I                0
Number of secondary structures             I                0
Redundant internal dimensions              I   N=           4
          47          11          16          20
Redundant internal coordinate indices      I   N=         188
           1           2           0           0           1           6
           0           0           2           3           0           0
           2           8           0           0           3           4
           0           0           3           9           0           0
           4           5           0           0           4          10
           0           0           5           6           0           0
           5          11           0           0           6           7
           0           0           2           1           6           0
           1           2           3           0           1           2
           8           0           3           2           8           0
           2           3           4           0           2           3
           9           0           4           3           9           0
           3           4           5           0           3           4
          10           0           5           4          10           0
           4           5           6           0           4           5
          11           0           6           5          11           0
           1           6           5           0           1           6
           7           0           5           6           7           0
           6           1           2           3           6           1
           2           8           2           1           6           5
           2           1           6           7           1           2
           3           4           1           2           3           9
           8           2           3           4           8           2
           3           9           2           3           4           5
           2           3           4          10           9           3
           4           5           9           3           4          10
           3           4           5           6           3           4
           5          11          10           4           5           6
          10           4           5          11           4           5
           6           1           4           5           6           7
          11           5           6           1          11           5
           6           7
Redundant internal coordinates             R   N=          47
  2.58731262E+00  2.58359423E+00  2.64451192E+00  3.26544552E+00  2.63182000E+00
  3.26991488E+00  2.62414928E+00  2.04459816E+00  2.63422303E+00  2.04628252E+00
  3.27695144E+00  2.18491515E+00  2.04059701E+00  2.10145802E+00  2.14113028E+00
  2.08954404E+00  2.10845929E+00  2.08518198E+00  2.11431792E+00  2.07215053E+00
  2.09671686E+00  2.08414445E+00  2.10716831E+00  2.09187255E+00  2.05285205E+00
  2.11384198E+00  2.11649127E+00 -0.00000000E+00  3.14159265E+00  0.00000000E+00
  3.14159265E+00  0.00000000E+00  3.14159265E+00  3.14159265E+00  0.00000000E+00
  0.00000000E+00  3.14159265E+00  3.14159265E+00 -0.00000000E+00  0.00000000E+00
  3.14159265E+00  3.14159265E+00  0.00000000E+00 -0.00000000E+00  3.14159265E+00
  3.14159265E+00 -0.00000000E+00
ZRed-IntVec                                I   N=          47
           0           0           0           0           0           0
           0           0           0           0           0           0
           0           0           0           0           0           0
           0           0           0           0           0           0
           0           0           0           0           0           0
           0           0           0           0           0           0
           0           0           0           0           0           0
           0           0           0           0           0
ZRed-FPVec                                 R   N=          47
  0.00000000E+00  0.00000000E+00  0.00000000E+00  0.00000000E+00  0.00000000E+00
  0.00000000E+00  0.00000000E+00  0.00000000E+00  0.00000000E+00  0.00000000E+00
  0.00000000E+00  0.00000000E+00  0.00000000E+00  0.00000000E+00  0.00000000E+00
  0.00000000E+00  0.00000000E+00  0.00000000E+00  0.00000000E+00  0.00000000E+00
  0.00000000E+00  0.00000000E+00  0.00000000E+00  0.00000000E+00  0.00000000E+00
  0.00000000E+00  0.00000000E+00  0.00000000E+00  0.00000000E+00  0.00000000E+00
  0.00000000E+00  0.00000000E+00  0.00000000E+00  0.00000000E+00  0.00000000E+00
  0.00000000E+00  0.00000000E+00  0.00000000E+00  0.00000000E+00  0.00000000E+00
  0.00000000E+00  0.00000000E+00  0.00000000E+00  0.00000000E+00  0.00000000E+00
  0.00000000E+00  0.00000000E+00
ZRed-Constraint1                           R   N=          47
  2.58731262E+00  2.58359423E+00  2.64451192E+00  3.26544552E+00  2.63182000E+00
  3.26991488E+00  2.62414928E+00  2.04459816E+00  2.63422303E+00  2.04628252E+00
  3.27695144E+00  2.18491515E+00  2.04059701E+00  2.10145802E+00  2.14113028E+00
  2.08954404E+00  2.10845929E+00  2.08518198E+00  2.11431792E+00  2.07215053E+00
  2.09671686E+00  2.08414445E+00  2.10716831E+00  2.09187255E+00  2.05285205E+00
  2.11384198E+00  2.11649127E+00  0.00000000E+00  3.14159265E+00 -0.00000000E+00
  3.14159265E+00 -0.00000000E+00  3.14159265E+00  3.14159265E+00  0.00000000E+00
  0.00000000E+00  3.14159265E+00  3.14159265E+00 -0.00000000E+00 -0.00000000E+00
  3.14159265E+00  3.14159265E+00  0.00000000E+00  0.00000000E+00  3.14159265E+00
  3.14159265E+00  0.00000000E+00
ZRed-Constraint2                           R   N=          47
  2.59843251E+00  2.59717947E+00  2.68349213E+00  3.17262595E+00  2.66210420E+00
  3.18924316E+00  2.64397948E+00  2.08161541E+00  2.67281735E+00  2.07758006E+00
  3.17700918E+00  2.24991436E+00  2.00399113E+00  2.12822466E+00  2.15096952E+00
  2.08617997E+00  2.10838864E+00  2.08861670E+00  2.12755752E+00  2.07837891E+00
  2.07724887E+00  2.08779811E+00  2.09861688E+00  2.09677032E+00  2.01092951E+00
  2.13999097E+00  2.13226482E+00 -0.00000000E+00  3.14159265E+00  0.00000000E+00
  3.14159265E+00  0.00000000E+00  3.14159265E+00  3.14159265E+00 -0.00000000E+00
 -0.00000000E+00  3.14159265E+00  3.14159265E+00  0.00000000E+00  0.00000000E+00
  3.14159265E+00  3.14159265E+00 -0.00000000E+00 -0.00000000E+00  3.14159265E+00
  3.14159265E+00  0.00000000E+00
SymInf integers                            I   N=          26
           1           2           1           1           1           1
           1          -1           0           0           0           0
           0           0           0           0           0           0
           0           0           0           0           0           0
           0           0
RotTr to input orientation                 R   N=          12
 -9.99051199E-01 -4.35511511E-02 -9.22429951E-17 -4.35511511E-02  9.99051199E-01
  8.05532599E-17  8.86472876E-17  8.44941195E-17 -1.00000000E+00 -3.62070271E+00
 -6.14846108E-03 -7.07507527E-18
Number of contracted shells                I               85
Number of primitive shells                 I              167
Pure/Cartesian d shells                    I                0
Pure/Cartesian f shells                    I                0
Highest angular momentum                   I                2
Largest degree of contraction              I                6
Shell types                                I   N=          85
           0          -1          -1          -1          -1          -2
           0          -1          -1          -1          -1          -2
           0          -1          -1          -1          -1          -2
           0          -1          -1          -1          -1          -2
           0          -1          -1          -1          -1          -2
           0          -1          -1          -1          -1          -2
           0           0           0           0           0           0
          -1           1           1           1           1           1
          -2           0           0           0           0           0
           0          -1           1           1           1           1
           1          -2           0           0           0           0
           0           0          -1           1           1           1
           1           1          -2           0           0           0
           0           1           0           0           0           0
           1
Number of primitives per shell             I   N=          85
           6           3           1           1           1           1
           6           3           1           1           1           1
           6           3           1           1           1           1
           6           3           1           1           1           1
           6           3           1           1           1           1
           6           3           1           1           1           1
           6           3           1           1           1           1
           1           5           2           1           1           1
           1           6           3           1           1           1
           1           1           5           2           1           1
           1           1           6           3           1           1
           1           1           1           5           2           1
           1           1           1           3           1           1
           1           1           3           1           1           1
           1
Shell to atom map                          I   N=          85
           1           1           1           1           1           1
           2           2           2           2           2           2
           3           3           3           3           3           3
           4           4           4           4           4           4
           5           5           5           5           5           5
           6           6           6           6           6           6
           7           7           7           7           7           7
           7           7           7           7           7           7
           7           8           8           8           8           8
           8           8           8           8           8           8
           8           8           9           9           9           9
           9           9           9           9           9           9
           9           9           9          10          10          10
          10          10          11          11          11          11
          11
Primitive exponents                        R   N=         167
  4.56324000E+03  6.82024000E+02  1.54973000E+02  4.44553000E+01  1.30290000E+01
  1.82773000E+00  2.09642000E+01  4.80331000E+00  1.45933000E+00  4.83456000E-01
  1.45585000E-01  4.38000000E-02  6.26000000E-01  4.56324000E+03  6.82024000E+02
  1.54973000E+02  4.44553000E+01  1.30290000E+01  1.82773000E+00  2.09642000E+01
  4.80331000E+00  1.45933000E+00  4.83456000E-01  1.45585000E-01  4.38000000E-02
  6.26000000E-01  4.56324000E+03  6.82024000E+02  1.54973000E+02  4.44553000E+01
  1.30290000E+01  1.82773000E+00  2.09642000E+01  4.80331000E+00  1.45933000E+00
  4.83456000E-01  1.45585000E-01  4.38000000E-02  6.26000000E-01  4.56324000E+03
  6.82024000E+02  1.54973000E+02  4.44553000E+01  1.30290000E+01  1.82773000E+00
  2.09642000E+01  4.80331000E+00  1.45933000E+00  4.83456000E-01  1.45585000E-01
  4.38000000E-02  6.26000000E-01  4.56324000E+03  6.82024000E+02  1.54973000E+02
  4.44553000E+01  1.30290000E+01  1.82773000E+00  2.09642000E+01  4.80331000E+00
  1.45933000E+00  4.83456000E-01  1.45585000E-01  4.38000000E-02  6.26000000E-01
  4.56324000E+03  6.82024000E+02  1.54973000E+02  4.44553000E+01  1.30290000E+01
  1.82773000E+00  2.09642000E+01  4.80331000E+00  1.45933000E+00  4.83456000E-01
  1.45585000E-01  4.38000000E-02  6.26000000E-01  1.05819000E+05  1.58720000E+04
  3.61965000E+03  1.03080000E+03  3.39908000E+02  1.24538000E+02  1.24538000E+02
  4.95135000E+01  2.08056000E+01  6.58346000E+00  2.56468000E+00  5.59763000E-01
  1.83273000E-01  4.83000000E-02  5.89776000E+02  1.39849000E+02  4.51413000E+01
  1.68733000E+01  2.77152000E+00  6.74110000E+00  2.77152000E+00  1.02387000E+00
  3.81368000E-01  1.09437000E-01  7.50000000E-01  1.05819000E+05  1.58720000E+04
  3.61965000E+03  1.03080000E+03  3.39908000E+02  1.24538000E+02  1.24538000E+02
  4.95135000E+01  2.08056000E+01  6.58346000E+00  2.56468000E+00  5.59763000E-01
  1.83273000E-01  4.83000000E-02  5.89776000E+02  1.39849000E+02  4.51413000E+01
  1.68733000E+01  2.77152000E+00  6.74110000E+00  2.77152000E+00  1.02387000E+00
  3.81368000E-01  1.09437000E-01  7.50000000E-01  1.05819000E+05  1.58720000E+04
  3.61965000E+03  1.03080000E+03  3.39908000E+02  1.24538000E+02  1.24538000E+02
  4.95135000E+01  2.08056000E+01  6.58346000E+00  2.56468000E+00  5.59763000E-01
  1.83273000E-01  4.83000000E-02  5.89776000E+02  1.39849000E+02  4.51413000E+01
  1.68733000E+01  2.77152000E+00  6.74110000E+00  2.77152000E+00  1.02387000E+00
  3.81368000E-01  1.09437000E-01  7.50000000E-01  3.38650000E+01  5.09479000E+00
  1.15879000E+00  3.25840000E-01  1.02741000E-01  3.60000000E-02  7.50000000E-01
  3.38650000E+01  5.09479000E+00  1.15879000E+00  3.25840000E-01  1.02741000E-01
  3.60000000E-02  7.50000000E-01
Contraction coefficients                   R   N=         167
  1.96665025E-03  1.52306019E-02  7.61269097E-02  2.60801033E-01  6.16462078E-01
  2.21006028E-01  1.14660081E-01  9.19999648E-01 -3.03068213E-03  1.00000000E+00
  1.00000000E+00  1.00000000E+00  1.00000000E+00  1.96665025E-03  1.52306019E-02
  7.61269097E-02  2.60801033E-01  6.16462078E-01  2.21006028E-01  1.14660081E-01
  9.19999648E-01 -3.03068213E-03  1.00000000E+00  1.00000000E+00  1.00000000E+00
  1.00000000E+00  1.96665025E-03  1.52306019E-02  7.61269097E-02  2.60801033E-01
  6.16462078E-01  2.21006028E-01  1.14660081E-01  9.19999648E-01 -3.03068213E-03
  1.00000000E+00  1.00000000E+00  1.00000000E+00  1.00000000E+00  1.96665025E-03
  1.52306019E-02  7.61269097E-02  2.60801033E-01  6.16462078E-01  2.21006028E-01
  1.14660081E-01  9.19999648E-01 -3.03068213E-03  1.00000000E+00  1.00000000E+00
  1.00000000E+00  1.00000000E+00  1.96665025E-03  1.52306019E-02  7.61269097E-02
  2.60801033E-01  6.16462078E-01  2.21006028E-01  1.14660081E-01  9.19999648E-01
 -3.03068213E-03  1.00000000E+00  1.00000000E+00  1.00000000E+00  1.00000000E+00
  1.96665025E-03  1.52306019E-02  7.61269097E-02  2.60801033E-01  6.16462078E-01
  2.21006028E-01  1.14660081E-01  9.19999648E-01 -3.03068213E-03  1.00000000E+00
  1.00000000E+00  1.00000000E+00  1.00000000E+00  7.38000247E-04  5.71800191E-03
  2.94950099E-02  1.17286039E-01  3.62949121E-01  5.84149195E-01  1.34176973E-01
  6.24249876E-01  2.91755942E-01  1.00000000E+00  1.00000000E+00  1.00000000E+00
  1.00000000E+00  1.00000000E+00  3.66556935E-03  2.83679194E-02  1.24756603E-01
  3.39654631E-01  7.47585963E-01 -1.57224381E+00  9.92388882E-01  1.00000000E+00
  1.00000000E+00  1.00000000E+00  1.00000000E+00  7.38000247E-04  5.71800191E-03
  2.94950099E-02  1.17286039E-01  3.62949121E-01  5.84149195E-01  1.34176973E-01
  6.24249876E-01  2.91755942E-01  1.00000000E+00  1.00000000E+00  1.00000000E+00
  1.00000000E+00  1.00000000E+00  3.66556935E-03  2.83679194E-02  1.24756603E-01
  3.39654631E-01  7.47585963E-01 -1.57224381E+00  9.92388882E-01  1.00000000E+00
  1.00000000E+00  1.00000000E+00  1.00000000E+00  7.38000247E-04  5.71800191E-03
  2.94950099E-02  1.17286039E-01  3.62949121E-01  5.84149195E-01  1.34176973E-01
  6.24249876E-01  2.91755942E-01  1.00000000E+00  1.00000000E+00  1.00000000E+00
  1.00000000E+00  1.00000000E+00  3.66556935E-03  2.83679194E-02  1.24756603E-01
  3.39654631E-01  7.47585963E-01 -1.57224381E+00  9.92388882E-01  1.00000000E+00
  1.00000000E+00  1.00000000E+00  1.00000000E+00  2.54938145E-02  1.90373109E-01
  8.52161486E-01  1.00000000E+00  1.00000000E+00  1.00000000E+00  1.00000000E+00
  2.54938145E-02  1.90373109E-01  8.52161486E-01  1.00000000E+00  1.00000000E+00
  1.00000000E+00  1.00000000E+00
P(S=P) Contraction coefficients            R   N=         167
  0.00000000E+00  0.00000000E+00  0.00000000E+00  0.00000000E+00  0.00000000E+00
  0.00000000E+00  4.02486927E-02  2.37593957E-01  8.15853851E-01  1.00000000E+00
  1.00000000E+00  1.00000000E+00  0.00000000E+00  0.00000000E+00  0.00000000E+00
  0.00000000E+00  0.00000000E+00  0.00000000E+00  0.00000000E+00  4.02486927E-02
  2.37593957E-01  8.15853851E-01  1.00000000E+00  1.00000000E+00  1.00000000E+00
  0.00000000E+00  0.00000000E+00  0.00000000E+00  0.00000000E+00  0.00000000E+00
  0.00000000E+00  0.00000000E+00  4.02486927E-02  2.37593957E-01  8.15853851E-01
  1.00000000E+00  1.00000000E+00  1.00000000E+00  0.00000000E+00  0.00000000E+00
  0.00000000E+00  0.00000000E+00  0.00000000E+00  0.00000000E+00  0.00000000E+00
  4.02486927E-02  2.37593957E-01  8.15853851E-01  1.00000000E+00  1.00000000E+00
  1.00000000E+00  0.00000000E+00  0.00000000E+00  0.00000000E+00  0.00000000E+00
  0.00000000E+00  0.00000000E+00  0.00000000E+00  4.02486927E-02  2.37593957E-01
  8.15853851E-01  1.00000000E+00  1.00000000E+00  1.00000000E+00  0.00000000E+00
  0.00000000E+00  0.00000000E+00  0.00000000E+00  0.00000000E+00  0.00000000E+00
  0.00000000E+00  4.02486927E-02  2.37593957E-01  8.15853851E-01  1.00000000E+00
  1.00000000E+00  1.00000000E+00  0.00000000E+00  0.00000000E+00  0.00000000E+00
  0.00000000E+00  0.00000000E+00  0.00000000E+00  0.00000000E+00  0.00000000E+00
  0.00000000E+00  0.00000000E+00  0.00000000E+00  0.00000000E+00  0.00000000E+00
  0.00000000E+00  1.00000000E+00  0.00000000E+00  0.00000000E+00  0.00000000E+00
  0.00000000E+00  0.00000000E+00  0.00000000E+00  0.00000000E+00  0.00000000E+00
  0.00000000E+00  0.00000000E+00  0.00000000E+00  0.00000000E+00  0.00000000E+00
  0.00000000E+00  0.00000000E+00  0.00000000E+00  0.00000000E+00  0.00000000E+00
  0.00000000E+00  0.00000000E+00  0.00000000E+00  0.00000000E+00  0.00000000E+00
  0.00000000E+00  1.00000000E+00  0.00000000E+00  0.00000000E+00  0.00000000E+00
  0.00000000E+00  0.00000000E+00  0.00000000E+00  0.00000000E+00  0.00000000E+00
  0.00000000E+00  0.00000000E+00  0.00000000E+00  0.00000000E+00  0.00000000E+00
  0.00000000E+00  0.00000000E+00  0.00000000E+00  0.00000000E+00  0.00000000E+00
  0.00000000E+00  0.00000000E+00  0.00000000E+00  0.00000000E+00  0.00000000E+00
  0.00000000E+00  1.00000000E+00  0.00000000E+00  0.00000000E+00  0.00000000E+00
  0.00000000E+00  0.00000000E+00  0.00000000E+00  0.00000000E+00  0.00000000E+00
  0.00000000E+00  0.00000000E+00  0.00000000E+00  0.00000000E+00  0.00000000E+00
  0.00000000E+00  0.00000000E+00  0.00000000E+00  0.00000000E+00  0.00000000E+00
  0.00000000E+00  0.00000000E+00  0.00000000E+00  0.00000000E+00  0.00000000E+00
  0.00000000E+00  0.00000000E+00
Coordinates of each shell                  R   N=         255
  2.19461840E+00  2.36898140E-01 -4.93038066E-32  2.19461840E+00  2.36898140E-01
 -4.93038066E-32  2.19461840E+00  2.36898140E-01 -4.93038066E-32  2.19461840E+00
  2.36898140E-01 -4.93038066E-32  2.19461840E+00  2.36898140E-01 -4.93038066E-32
  2.19461840E+00  2.36898140E-01 -4.93038066E-32  6.93889390E-17  1.60723995E+00
 -7.39557099E-32  6.93889390E-17  1.60723995E+00 -7.39557099E-32  6.93889390E-17
  1.60723995E+00 -7.39557099E-32  6.93889390E-17  1.60723995E+00 -7.39557099E-32
  6.93889390E-17  1.60723995E+00 -7.39557099E-32  6.93889390E-17  1.60723995E+00
 -7.39557099E-32 -2.26437672E+00  2.41208708E-01  0.00000000E+00 -2.26437672E+00
  2.41208708E-01  0.00000000E+00 -2.26437672E+00  2.41208708E-01  0.00000000E+00
 -2.26437672E+00  2.41208708E-01  0.00000000E+00 -2.26437672E+00  2.41208708E-01
  0.00000000E+00 -2.26437672E+00  2.41208708E-01  0.00000000E+00 -2.20102715E+00
 -2.38984875E+00  6.47112461E-32 -2.20102715E+00 -2.38984875E+00  6.47112461E-32
 -2.20102715E+00 -2.38984875E+00  6.47112461E-32 -2.20102715E+00 -2.38984875E+00
  6.47112461E-32 -2.20102715E+00 -2.38984875E+00  6.47112461E-32 -2.20102715E+00
 -2.38984875E+00  6.47112461E-32  7.69784937E-02 -3.69248059E+00  9.86076132E-32
  7.69784937E-02 -3.69248059E+00  9.86076132E-32  7.69784937E-02 -3.69248059E+00
  9.86076132E-32  7.69784937E-02 -3.69248059E+00  9.86076132E-32  7.69784937E-02
 -3.69248059E+00  9.86076132E-32  7.69784937E-02 -3.69248059E+00  9.86076132E-32
  2.33907921E+00 -2.34265419E+00  4.93038066E-32  2.33907921E+00 -2.34265419E+00
  4.93038066E-32  2.33907921E+00 -2.34265419E+00  4.93038066E-32  2.33907921E+00
 -2.34265419E+00  4.93038066E-32  2.33907921E+00 -2.34265419E+00  4.93038066E-32
  2.33907921E+00 -2.34265419E+00  4.93038066E-32  5.23489863E+00 -3.87648619E+00
  9.86076132E-32  5.23489863E+00 -3.87648619E+00  9.86076132E-32  5.23489863E+00
 -3.87648619E+00  9.86076132E-32  5.23489863E+00 -3.87648619E+00  9.86076132E-32
  5.23489863E+00 -3.87648619E+00  9.86076132E-32  5.23489863E+00 -3.87648619E+00
  9.86076132E-32  5.23489863E+00 -3.87648619E+00  9.86076132E-32  5.23489863E+00
 -3.87648619E+00  9.86076132E-32  5.23489863E+00 -3.87648619E+00  9.86076132E-32
  5.23489863E+00 -3.87648619E+00  9.86076132E-32  5.23489863E+00 -3.87648619E+00
  9.86076132E-32  5.23489863E+00 -3.87648619E+00  9.86076132E-32  5.23489863E+00
 -3.87648619E+00  9.86076132E-32  8.98317861E-02  4.87144961E+00 -1.47911420E-31
  8.98317861E-02  4.87144961E+00 -1.47911420E-31  8.98317861E-02  4.87144961E+00
 -1.47911420E-31  8.98317861E-02  4.87144961E+00 -1.47911420E-31  8.98317861E-02
  4.87144961E+00 -1.47911420E-31  8.98317861E-02  4.87144961E+00 -1.47911420E-31
  8.98317861E-02  4.87144961E+00 -1.47911420E-31  8.98317861E-02  4.87144961E+00
 -1.47911420E-31  8.98317861E-02  4.87144961E+00 -1.47911420E-31  8.98317861E-02
  4.87144961E+00 -1.47911420E-31  8.98317861E-02  4.87144961E+00 -1.47911420E-31
  8.98317861E-02  4.87144961E+00 -1.47911420E-31  8.98317861E-02  4.87144961E+00
 -1.47911420E-31 -5.14904872E+00  1.78101740E+00 -9.86076132E-32 -5.14904872E+00
  1.78101740E+00 -9.86076132E-32 -5.14904872E+00  1.78101740E+00 -9.86076132E-32
 -5.14904872E+00  1.78101740E+00 -9.86076132E-32 -5.14904872E+00  1.78101740E+00
 -9.86076132E-32 -5.14904872E+00  1.78101740E+00 -9.86076132E-32 -5.14904872E+00
  1.78101740E+00 -9.86076132E-32 -5.14904872E+00  1.78101740E+00 -9.86076132E-32
 -5.14904872E+00  1.78101740E+00 -9.86076132E-32 -5.14904872E+00  1.78101740E+00
 -9.86076132E-32 -5.14904872E+00  1.78101740E+00 -9.86076132E-32 -5.14904872E+00
  1.78101740E+00 -9.86076132E-32 -5.14904872E+00  1.78101740E+00 -9.86076132E-32
 -3.96982899E+00 -3.41538358E+00  7.39557099E-32 -3.96982899E+00 -3.41538358E+00
  7.39557099E-32 -3.96982899E+00 -3.41538358E+00  7.39557099E-32 -3.96982899E+00
 -3.41538358E+00  7.39557099E-32 -3.96982899E+00 -3.41538358E+00  7.39557099E-32
  1.11606789E-01 -5.73847009E+00  9.86076132E-32  1.11606789E-01 -5.73847009E+00
  9.86076132E-32  1.11606789E-01 -5.73847009E+00  9.86076132E-32  1.11606789E-01
 -5.73847009E+00  9.86076132E-32  1.11606789E-01 -5.73847009E+00  9.86076132E-32
Num ILSW                                   I              100
ILSW                                       I   N=         100
           1           0           0           0           2           0
           0           0           0           0        4336          -1
           5           0           0           0           2           0
           0           0           1           0           1           0
           1           0           0           0           0           0
           0           0      100000           0          -1           0
           0           0           0           0           0           0
           0           0           0           1           0           0
           0 -2000000000           1           0           0           0
           0           0           4          52           0           0
           0           0          55           0           0           0
           0           0           0           0           0           1
           0           0           0           0           0           0
           0           0           0           0           0           0
           0           0           0           0           0           0
           0           0           0           0           0           0
           0           0           0           0
Num RLSW                                   I               52
RLSW                                       R   N=          52