Neutral Radical (removed 2) 1_3                                         
Freq      UM062X                                                      6-311++G(d,p)       
Number of atoms                            I               11
Info1-9                                    I   N=           9
           8           6        1002           0           0         100
           6          18       -5502
Full Title                                 C   N=           3
Neutral Radical (removed 2) 1_3     
Route                                      C   N=           5
# opt freq 6-311++g(d,p) guess=read geom=allcheck m062x     
Charge                                     I                0
Multiplicity                               I                2
Number of electrons                        I               73
Number of alpha electrons                  I               37
Number of beta electrons                   I               36
Number of basis functions                  I              213
Number of independent functions            I              213
Number of point charges in /Mol/           I                0
Number of translation vectors              I                0
Atomic numbers                             I   N=          11
           6           6           6           6           6           6
          17          17           1           1           1
Nuclear charges                            R   N=          11
  6.00000000E+00  6.00000000E+00  6.00000000E+00  6.00000000E+00  6.00000000E+00
  6.00000000E+00  1.70000000E+01  1.70000000E+01  1.00000000E+00  1.00000000E+00
  1.00000000E+00
Current cartesian coordinates              R   N=          33
 -1.26222735E+00  4.08992373E-08 -2.83974985E-32 -4.39548976E-02  2.28268260E+00
  9.86076132E-32  2.58998300E+00  2.29375622E+00  0.00000000E+00  3.87613231E+00
  9.55301438E-08  6.93464555E-32  2.58998300E+00 -2.29375550E+00 -4.93038066E-32
 -4.39545608E-02 -2.28268254E+00 -1.47911420E-31 -1.74543344E+00 -5.09041219E+00
 -2.95822839E-31 -1.74543293E+00  5.09041182E+00  9.86076132E-32  3.59337871E+00
  4.07707343E+00  0.00000000E+00  5.92220218E+00  2.12894329E-08  4.40769004E-32
  3.59337848E+00 -4.07707280E+00 -9.86076132E-32
Number of symbols in /Mol/                 I                0
Force Field                                I                0
Atom Types                                 C   N=          11
                                                            
                                                            
            
Int Atom Types                             I   N=          11
           0           0           0           0           0           0
           0           0           0           0           0
MM charges                                 R   N=          11
  0.00000000E+00  0.00000000E+00  0.00000000E+00  0.00000000E+00  0.00000000E+00
  0.00000000E+00  0.00000000E+00  0.00000000E+00  0.00000000E+00  0.00000000E+00
  0.00000000E+00
Integer atomic weights                     I   N=          11
          12          12          12          12          12          12
          35          35           1           1           1
Real atomic weights                        R   N=          11
  1.20000000E+01  1.20000000E+01  1.20000000E+01  1.20000000E+01  1.20000000E+01
  1.20000000E+01  3.49688527E+01  3.49688527E+01  1.00782504E+00  1.00782504E+00
  1.00782504E+00
Atom fragment info                         I   N=          11
           0           0           0           0           0           0
           0           0           0           0           0
Atom residue num                           I   N=          11
           0           0           0           0           0           0
           0           0           0           0           0
Nuclear spins                              I   N=          11
           0           0           0           0           0           0
           3           3           1           1           1
Nuclear ZEff                               R   N=          11
 -3.60000000E+00 -3.60000000E+00 -3.60000000E+00 -3.60000000E+00 -3.60000000E+00
 -3.60000000E+00 -1.42400000E+01 -1.42400000E+01 -1.00000000E+00 -1.00000000E+00
 -1.00000000E+00
Nuclear ZNuc                               R   N=          11
  6.00000000E+00  6.00000000E+00  6.00000000E+00  6.00000000E+00  6.00000000E+00
  6.00000000E+00  1.70000000E+01  1.70000000E+01  1.00000000E+00  1.00000000E+00
  1.00000000E+00
Nuclear QMom                               R   N=          11
  0.00000000E+00  0.00000000E+00  0.00000000E+00  0.00000000E+00  0.00000000E+00
  0.00000000E+00 -8.16500000E+00 -8.16500000E+00  0.00000000E+00  0.00000000E+00
  0.00000000E+00
Nuclear GFac                               R   N=          11
  0.00000000E+00  0.00000000E+00  0.00000000E+00  0.00000000E+00  0.00000000E+00
  0.00000000E+00  8.21874000E-01  8.21874000E-01  2.79284600E+00  2.79284600E+00
  2.79284600E+00
MicOpt                                     I   N=          11
          -1          -1          -1          -1          -1          -1
          -1          -1          -1          -1          -1
Number of residues                         I                0
Number of secondary structures             I                0
Redundant internal dimensions              I   N=           4
          47          11          16          20
Redundant internal coordinate indices      I   N=         188
           1           2           0           0           1           6
           0           0           2           3           0           0
           2           8           0           0           3           4
           0           0           3           9           0           0
           4           5           0           0           4          10
           0           0           5           6           0           0
           5          11           0           0           6           7
           0           0           2           1           6           0
           1           2           3           0           1           2
           8           0           3           2           8           0
           2           3           4           0           2           3
           9           0           4           3           9           0
           3           4           5           0           3           4
          10           0           5           4          10           0
           4           5           6           0           4           5
          11           0           6           5          11           0
           1           6           5           0           1           6
           7           0           5           6           7           0
           6           1           2           3           6           1
           2           8           2           1           6           5
           2           1           6           7           1           2
           3           4           1           2           3           9
           8           2           3           4           8           2
           3           9           2           3           4           5
           2           3           4          10           9           3
           4           5           9           3           4          10
           3           4           5           6           3           4
           5          11          10           4           5           6
          10           4           5          11           4           5
           6           1           4           5           6           7
          11           5           6           1          11           5
           6           7
Redundant internal coordinates             R   N=          47
  2.58743646E+00  2.58743664E+00  2.63396118E+00  3.28304293E+00  2.62973329E+00
  2.04622169E+00  2.62973283E+00  2.04606987E+00  2.63396084E+00  2.04622166E+00
  3.28304374E+00  2.16110379E+00  2.06524489E+00  2.10653022E+00  2.11141020E+00
  2.07762654E+00  2.08750914E+00  2.11804962E+00  2.11952375E+00  2.08183076E+00
  2.08183079E+00  2.07762689E+00  2.11804964E+00  2.08750877E+00  2.06524475E+00
  2.10652995E+00  2.11141061E+00  0.00000000E+00  3.14159265E+00 -0.00000000E+00
  3.14159265E+00 -0.00000000E+00  3.14159265E+00  3.14159265E+00  0.00000000E+00
  0.00000000E+00  3.14159265E+00  3.14159265E+00  0.00000000E+00 -0.00000000E+00
  3.14159265E+00  3.14159265E+00 -0.00000000E+00  0.00000000E+00  3.14159265E+00
  3.14159265E+00  0.00000000E+00
ZRed-IntVec                                I   N=          47
           0           0           0           0           0           0
           0           0           0           0           0           0
           0           0           0           0           0           0
           0           0           0           0           0           0
           0           0           0           0           0           0
           0           0           0           0           0           0
           0           0           0           0           0           0
           0           0           0           0           0
ZRed-FPVec                                 R   N=          47
  0.00000000E+00  0.00000000E+00  0.00000000E+00  0.00000000E+00  0.00000000E+00
  0.00000000E+00  0.00000000E+00  0.00000000E+00  0.00000000E+00  0.00000000E+00
  0.00000000E+00  0.00000000E+00  0.00000000E+00  0.00000000E+00  0.00000000E+00
  0.00000000E+00  0.00000000E+00  0.00000000E+00  0.00000000E+00  0.00000000E+00
  0.00000000E+00  0.00000000E+00  0.00000000E+00  0.00000000E+00  0.00000000E+00
  0.00000000E+00  0.00000000E+00  0.00000000E+00  0.00000000E+00  0.00000000E+00
  0.00000000E+00  0.00000000E+00  0.00000000E+00  0.00000000E+00  0.00000000E+00
  0.00000000E+00  0.00000000E+00  0.00000000E+00  0.00000000E+00  0.00000000E+00
  0.00000000E+00  0.00000000E+00  0.00000000E+00  0.00000000E+00  0.00000000E+00
  0.00000000E+00  0.00000000E+00
ZRed-Constraint1                           R   N=          47
  2.58743646E+00  2.58743664E+00  2.63396118E+00  3.28304293E+00  2.62973329E+00
  2.04622169E+00  2.62973283E+00  2.04606987E+00  2.63396084E+00  2.04622166E+00
  3.28304374E+00  2.16110379E+00  2.06524489E+00  2.10653022E+00  2.11141020E+00
  2.07762654E+00  2.08750914E+00  2.11804962E+00  2.11952375E+00  2.08183076E+00
  2.08183079E+00  2.07762689E+00  2.11804964E+00  2.08750877E+00  2.06524475E+00
  2.10652995E+00  2.11141061E+00  0.00000000E+00  3.14159265E+00  0.00000000E+00
  3.14159265E+00 -0.00000000E+00  3.14159265E+00  3.14159265E+00 -0.00000000E+00
 -0.00000000E+00  3.14159265E+00  3.14159265E+00  0.00000000E+00  0.00000000E+00
  3.14159265E+00  3.14159265E+00  0.00000000E+00 -0.00000000E+00  3.14159265E+00
  3.14159265E+00  0.00000000E+00
ZRed-Constraint2                           R   N=          47
  2.59881069E+00  2.59881029E+00  2.67031056E+00  3.18107776E+00  2.64804529E+00
  2.07721347E+00  2.64804093E+00  2.08098939E+00  2.67030392E+00  2.07682686E+00
  3.18107783E+00  2.23781076E+00  2.01530410E+00  2.13712731E+00  2.13075390E+00
  2.08260590E+00  2.09672568E+00  2.10385373E+00  2.13273598E+00  2.07522521E+00
  2.07522411E+00  2.08261185E+00  2.10385057E+00  2.09672289E+00  2.01530202E+00
  2.13712790E+00  2.13075539E+00  0.00000000E+00  3.14159265E+00  0.00000000E+00
  3.14159265E+00  0.00000000E+00  3.14159265E+00  3.14159265E+00  0.00000000E+00
  0.00000000E+00  3.14159265E+00  3.14159265E+00  0.00000000E+00  0.00000000E+00
  3.14159265E+00  3.14159265E+00  0.00000000E+00  0.00000000E+00  3.14159265E+00
  3.14159265E+00  0.00000000E+00
SymInf integers                            I   N=          26
           1           2           1           1           1           1
           1          -1           0           0           0           0
           0           0           0           0           0           0
           0           0           0           0           0           0
           0           0
RotTr to input orientation                 R   N=          12
  8.79429146E-01 -4.76029806E-01  1.18304076E-23  4.76029806E-01  8.79429146E-01
  1.22464680E-16 -5.82968483E-17 -1.07699003E-16  1.00000000E+00 -4.63411224E+00
 -3.97478082E-01  1.60287469E-21
Number of contracted shells                I               77
Number of primitive shells                 I              149
Pure/Cartesian d shells                    I                0
Pure/Cartesian f shells                    I                0
Highest angular momentum                   I                2
Largest degree of contraction              I                6
Shell types                                I   N=          77
           0          -1          -1          -1          -1          -2
           0          -1          -1          -1          -1          -2
           0          -1          -1          -1          -1          -2
           0          -1          -1          -1          -1          -2
           0          -1          -1          -1          -1          -2
           0          -1          -1          -1          -1          -2
           0           0           0           0           0           0
          -1           1           1           1           1           1
          -2           0           0           0           0           0
           0          -1           1           1           1           1
           1          -2           0           0           0           0
           1           0           0           0           0           1
           0           0           0           0           1
Number of primitives per shell             I   N=          77
           6           3           1           1           1           1
           6           3           1           1           1           1
           6           3           1           1           1           1
           6           3           1           1           1           1
           6           3           1           1           1           1
           6           3           1           1           1           1
           6           3           1           1           1           1
           1           5           2           1           1           1
           1           6           3           1           1           1
           1           1           5           2           1           1
           1           1           3           1           1           1
           1           3           1           1           1           1
           3           1           1           1           1
Shell to atom map                          I   N=          77
           1           1           1           1           1           1
           2           2           2           2           2           2
           3           3           3           3           3           3
           4           4           4           4           4           4
           5           5           5           5           5           5
           6           6           6           6           6           6
           7           7           7           7           7           7
           7           7           7           7           7           7
           7           8           8           8           8           8
           8           8           8           8           8           8
           8           8           9           9           9           9
           9          10          10          10          10          10
          11          11          11          11          11
Primitive exponents                        R   N=         149
  4.56324000E+03  6.82024000E+02  1.54973000E+02  4.44553000E+01  1.30290000E+01
  1.82773000E+00  2.09642000E+01  4.80331000E+00  1.45933000E+00  4.83456000E-01
  1.45585000E-01  4.38000000E-02  6.26000000E-01  4.56324000E+03  6.82024000E+02
  1.54973000E+02  4.44553000E+01  1.30290000E+01  1.82773000E+00  2.09642000E+01
  4.80331000E+00  1.45933000E+00  4.83456000E-01  1.45585000E-01  4.38000000E-02
  6.26000000E-01  4.56324000E+03  6.82024000E+02  1.54973000E+02  4.44553000E+01
  1.30290000E+01  1.82773000E+00  2.09642000E+01  4.80331000E+00  1.45933000E+00
  4.83456000E-01  1.45585000E-01  4.38000000E-02  6.26000000E-01  4.56324000E+03
  6.82024000E+02  1.54973000E+02  4.44553000E+01  1.30290000E+01  1.82773000E+00
  2.09642000E+01  4.80331000E+00  1.45933000E+00  4.83456000E-01  1.45585000E-01
  4.38000000E-02  6.26000000E-01  4.56324000E+03  6.82024000E+02  1.54973000E+02
  4.44553000E+01  1.30290000E+01  1.82773000E+00  2.09642000E+01  4.80331000E+00
  1.45933000E+00  4.83456000E-01  1.45585000E-01  4.38000000E-02  6.26000000E-01
  4.56324000E+03  6.82024000E+02  1.54973000E+02  4.44553000E+01  1.30290000E+01
  1.82773000E+00  2.09642000E+01  4.80331000E+00  1.45933000E+00  4.83456000E-01
  1.45585000E-01  4.38000000E-02  6.26000000E-01  1.05819000E+05  1.58720000E+04
  3.61965000E+03  1.03080000E+03  3.39908000E+02  1.24538000E+02  1.24538000E+02
  4.95135000E+01  2.08056000E+01  6.58346000E+00  2.56468000E+00  5.59763000E-01
  1.83273000E-01  4.83000000E-02  5.89776000E+02  1.39849000E+02  4.51413000E+01
  1.68733000E+01  2.77152000E+00  6.74110000E+00  2.77152000E+00  1.02387000E+00
  3.81368000E-01  1.09437000E-01  7.50000000E-01  1.05819000E+05  1.58720000E+04
  3.61965000E+03  1.03080000E+03  3.39908000E+02  1.24538000E+02  1.24538000E+02
  4.95135000E+01  2.08056000E+01  6.58346000E+00  2.56468000E+00  5.59763000E-01
  1.83273000E-01  4.83000000E-02  5.89776000E+02  1.39849000E+02  4.51413000E+01
  1.68733000E+01  2.77152000E+00  6.74110000E+00  2.77152000E+00  1.02387000E+00
  3.81368000E-01  1.09437000E-01  7.50000000E-01  3.38650000E+01  5.09479000E+00
  1.15879000E+00  3.25840000E-01  1.02741000E-01  3.60000000E-02  7.50000000E-01
  3.38650000E+01  5.09479000E+00  1.15879000E+00  3.25840000E-01  1.02741000E-01
  3.60000000E-02  7.50000000E-01  3.38650000E+01  5.09479000E+00  1.15879000E+00
  3.25840000E-01  1.02741000E-01  3.60000000E-02  7.50000000E-01
Contraction coefficients                   R   N=         149
  1.96665025E-03  1.52306019E-02  7.61269097E-02  2.60801033E-01  6.16462078E-01
  2.21006028E-01  1.14660081E-01  9.19999648E-01 -3.03068213E-03  1.00000000E+00
  1.00000000E+00  1.00000000E+00  1.00000000E+00  1.96665025E-03  1.52306019E-02
  7.61269097E-02  2.60801033E-01  6.16462078E-01  2.21006028E-01  1.14660081E-01
  9.19999648E-01 -3.03068213E-03  1.00000000E+00  1.00000000E+00  1.00000000E+00
  1.00000000E+00  1.96665025E-03  1.52306019E-02  7.61269097E-02  2.60801033E-01
  6.16462078E-01  2.21006028E-01  1.14660081E-01  9.19999648E-01 -3.03068213E-03
  1.00000000E+00  1.00000000E+00  1.00000000E+00  1.00000000E+00  1.96665025E-03
  1.52306019E-02  7.61269097E-02  2.60801033E-01  6.16462078E-01  2.21006028E-01
  1.14660081E-01  9.19999648E-01 -3.03068213E-03  1.00000000E+00  1.00000000E+00
  1.00000000E+00  1.00000000E+00  1.96665025E-03  1.52306019E-02  7.61269097E-02
  2.60801033E-01  6.16462078E-01  2.21006028E-01  1.14660081E-01  9.19999648E-01
 -3.03068213E-03  1.00000000E+00  1.00000000E+00  1.00000000E+00  1.00000000E+00
  1.96665025E-03  1.52306019E-02  7.61269097E-02  2.60801033E-01  6.16462078E-01
  2.21006028E-01  1.14660081E-01  9.19999648E-01 -3.03068213E-03  1.00000000E+00
  1.00000000E+00  1.00000000E+00  1.00000000E+00  7.38000247E-04  5.71800191E-03
  2.94950099E-02  1.17286039E-01  3.62949121E-01  5.84149195E-01  1.34176973E-01
  6.24249876E-01  2.91755942E-01  1.00000000E+00  1.00000000E+00  1.00000000E+00
  1.00000000E+00  1.00000000E+00  3.66556935E-03  2.83679194E-02  1.24756603E-01
  3.39654631E-01  7.47585963E-01 -1.57224381E+00  9.92388882E-01  1.00000000E+00
  1.00000000E+00  1.00000000E+00  1.00000000E+00  7.38000247E-04  5.71800191E-03
  2.94950099E-02  1.17286039E-01  3.62949121E-01  5.84149195E-01  1.34176973E-01
  6.24249876E-01  2.91755942E-01  1.00000000E+00  1.00000000E+00  1.00000000E+00
  1.00000000E+00  1.00000000E+00  3.66556935E-03  2.83679194E-02  1.24756603E-01
  3.39654631E-01  7.47585963E-01 -1.57224381E+00  9.92388882E-01  1.00000000E+00
  1.00000000E+00  1.00000000E+00  1.00000000E+00  2.54938145E-02  1.90373109E-01
  8.52161486E-01  1.00000000E+00  1.00000000E+00  1.00000000E+00  1.00000000E+00
  2.54938145E-02  1.90373109E-01  8.52161486E-01  1.00000000E+00  1.00000000E+00
  1.00000000E+00  1.00000000E+00  2.54938145E-02  1.90373109E-01  8.52161486E-01
  1.00000000E+00  1.00000000E+00  1.00000000E+00  1.00000000E+00
P(S=P) Contraction coefficients            R   N=         149
  0.00000000E+00  0.00000000E+00  0.00000000E+00  0.00000000E+00  0.00000000E+00
  0.00000000E+00  4.02486927E-02  2.37593957E-01  8.15853851E-01  1.00000000E+00
  1.00000000E+00  1.00000000E+00  0.00000000E+00  0.00000000E+00  0.00000000E+00
  0.00000000E+00  0.00000000E+00  0.00000000E+00  0.00000000E+00  4.02486927E-02
  2.37593957E-01  8.15853851E-01  1.00000000E+00  1.00000000E+00  1.00000000E+00
  0.00000000E+00  0.00000000E+00  0.00000000E+00  0.00000000E+00  0.00000000E+00
  0.00000000E+00  0.00000000E+00  4.02486927E-02  2.37593957E-01  8.15853851E-01
  1.00000000E+00  1.00000000E+00  1.00000000E+00  0.00000000E+00  0.00000000E+00
  0.00000000E+00  0.00000000E+00  0.00000000E+00  0.00000000E+00  0.00000000E+00
  4.02486927E-02  2.37593957E-01  8.15853851E-01  1.00000000E+00  1.00000000E+00
  1.00000000E+00  0.00000000E+00  0.00000000E+00  0.00000000E+00  0.00000000E+00
  0.00000000E+00  0.00000000E+00  0.00000000E+00  4.02486927E-02  2.37593957E-01
  8.15853851E-01  1.00000000E+00  1.00000000E+00  1.00000000E+00  0.00000000E+00
  0.00000000E+00  0.00000000E+00  0.00000000E+00  0.00000000E+00  0.00000000E+00
  0.00000000E+00  4.02486927E-02  2.37593957E-01  8.15853851E-01  1.00000000E+00
  1.00000000E+00  1.00000000E+00  0.00000000E+00  0.00000000E+00  0.00000000E+00
  0.00000000E+00  0.00000000E+00  0.00000000E+00  0.00000000E+00  0.00000000E+00
  0.00000000E+00  0.00000000E+00  0.00000000E+00  0.00000000E+00  0.00000000E+00
  0.00000000E+00  1.00000000E+00  0.00000000E+00  0.00000000E+00  0.00000000E+00
  0.00000000E+00  0.00000000E+00  0.00000000E+00  0.00000000E+00  0.00000000E+00
  0.00000000E+00  0.00000000E+00  0.00000000E+00  0.00000000E+00  0.00000000E+00
  0.00000000E+00  0.00000000E+00  0.00000000E+00  0.00000000E+00  0.00000000E+00
  0.00000000E+00  0.00000000E+00  0.00000000E+00  0.00000000E+00  0.00000000E+00
  0.00000000E+00  1.00000000E+00  0.00000000E+00  0.00000000E+00  0.00000000E+00
  0.00000000E+00  0.00000000E+00  0.00000000E+00  0.00000000E+00  0.00000000E+00
  0.00000000E+00  0.00000000E+00  0.00000000E+00  0.00000000E+00  0.00000000E+00
  0.00000000E+00  0.00000000E+00  0.00000000E+00  0.00000000E+00  0.00000000E+00
  0.00000000E+00  0.00000000E+00  0.00000000E+00  0.00000000E+00  0.00000000E+00
  0.00000000E+00  0.00000000E+00  0.00000000E+00  0.00000000E+00  0.00000000E+00
  0.00000000E+00  0.00000000E+00  0.00000000E+00  0.00000000E+00
Coordinates of each shell                  R   N=         231
 -1.26222735E+00  4.08992373E-08 -2.30603780E-32 -1.26222735E+00  4.08992373E-08
 -2.30603780E-32 -1.26222735E+00  4.08992373E-08 -2.30603780E-32 -1.26222735E+00
  4.08992373E-08 -2.30603780E-32 -1.26222735E+00  4.08992373E-08 -2.30603780E-32
 -1.26222735E+00  4.08992373E-08 -2.30603780E-32 -4.39548976E-02  2.28268260E+00
  4.93038066E-32 -4.39548976E-02  2.28268260E+00  4.93038066E-32 -4.39548976E-02
  2.28268260E+00  4.93038066E-32 -4.39548976E-02  2.28268260E+00  4.93038066E-32
 -4.39548976E-02  2.28268260E+00  4.93038066E-32 -4.39548976E-02  2.28268260E+00
  4.93038066E-32  2.58998300E+00  2.29375622E+00  4.93038066E-32  2.58998300E+00
  2.29375622E+00  4.93038066E-32  2.58998300E+00  2.29375622E+00  4.93038066E-32
  2.58998300E+00  2.29375622E+00  4.93038066E-32  2.58998300E+00  2.29375622E+00
  4.93038066E-32  2.58998300E+00  2.29375622E+00  4.93038066E-32  3.87613231E+00
  9.55301440E-08  6.31563962E-32  3.87613231E+00  9.55301440E-08  6.31563962E-32
  3.87613231E+00  9.55301440E-08  6.31563962E-32  3.87613231E+00  9.55301440E-08
  6.31563962E-32  3.87613231E+00  9.55301440E-08  6.31563962E-32  3.87613231E+00
  9.55301440E-08  6.31563962E-32  2.58998300E+00 -2.29375550E+00 -4.93038066E-32
  2.58998300E+00 -2.29375550E+00 -4.93038066E-32  2.58998300E+00 -2.29375550E+00
 -4.93038066E-32  2.58998300E+00 -2.29375550E+00 -4.93038066E-32  2.58998300E+00
 -2.29375550E+00 -4.93038066E-32  2.58998300E+00 -2.29375550E+00 -4.93038066E-32
 -4.39545608E-02 -2.28268254E+00 -9.86076132E-32 -4.39545608E-02 -2.28268254E+00
 -9.86076132E-32 -4.39545608E-02 -2.28268254E+00 -9.86076132E-32 -4.39545608E-02
 -2.28268254E+00 -9.86076132E-32 -4.39545608E-02 -2.28268254E+00 -9.86076132E-32
 -4.39545608E-02 -2.28268254E+00 -9.86076132E-32 -1.74543344E+00 -5.09041219E+00
 -1.97215226E-31 -1.74543344E+00 -5.09041219E+00 -1.97215226E-31 -1.74543344E+00
 -5.09041219E+00 -1.97215226E-31 -1.74543344E+00 -5.09041219E+00 -1.97215226E-31
 -1.74543344E+00 -5.09041219E+00 -1.97215226E-31 -1.74543344E+00 -5.09041219E+00
 -1.97215226E-31 -1.74543344E+00 -5.09041219E+00 -1.97215226E-31 -1.74543344E+00
 -5.09041219E+00 -1.97215226E-31 -1.74543344E+00 -5.09041219E+00 -1.97215226E-31
 -1.74543344E+00 -5.09041219E+00 -1.97215226E-31 -1.74543344E+00 -5.09041219E+00
 -1.97215226E-31 -1.74543344E+00 -5.09041219E+00 -1.97215226E-31 -1.74543344E+00
 -5.09041219E+00 -1.97215226E-31 -1.74543293E+00  5.09041182E+00  0.00000000E+00
 -1.74543293E+00  5.09041182E+00  0.00000000E+00 -1.74543293E+00  5.09041182E+00
  0.00000000E+00 -1.74543293E+00  5.09041182E+00  0.00000000E+00 -1.74543293E+00
  5.09041182E+00  0.00000000E+00 -1.74543293E+00  5.09041182E+00  0.00000000E+00
 -1.74543293E+00  5.09041182E+00  0.00000000E+00 -1.74543293E+00  5.09041182E+00
  0.00000000E+00 -1.74543293E+00  5.09041182E+00  0.00000000E+00 -1.74543293E+00
  5.09041182E+00  0.00000000E+00 -1.74543293E+00  5.09041182E+00  0.00000000E+00
 -1.74543293E+00  5.09041182E+00  0.00000000E+00 -1.74543293E+00  5.09041182E+00
  0.00000000E+00  3.59337871E+00  4.07707343E+00  0.00000000E+00  3.59337871E+00
  4.07707343E+00  0.00000000E+00  3.59337871E+00  4.07707343E+00  0.00000000E+00
  3.59337871E+00  4.07707343E+00  0.00000000E+00  3.59337871E+00  4.07707343E+00
  0.00000000E+00  5.92220218E+00  2.12894324E-08  6.10751130E-32  5.92220218E+00
  2.12894324E-08  6.10751130E-32  5.92220218E+00  2.12894324E-08  6.10751130E-32
  5.92220218E+00  2.12894324E-08  6.10751130E-32  5.92220218E+00  2.12894324E-08
  6.10751130E-32  3.59337848E+00 -4.07707280E+00  0.00000000E+00  3.59337848E+00
 -4.07707280E+00  0.00000000E+00  3.59337848E+00 -4.07707280E+00  0.00000000E+00
  3.59337848E+00 -4.07707280E+00  0.00000000E+00  3.59337848E+00 -4.07707280E+00
  0.00000000E+00
Num ILSW                                   I              100
ILSW                                       I   N=         100
           1           0           0           0           2           0
           0           0           0           0        4336          -1
           5           0           0           0           2           0
           0           0           1           0           1           0
           1           0           0           0           0           0
           0           0      100000           0          -1           0
           0           0           0           0           0           0
           0           0           0           1           0           0
           0 -2000000000           1           0           0           0
           0           0           4          52           0           0
           0           0          55           0           0           0
           0           0           0           0           0           1
           0           0           0           0           0           0
           0           0           0           0           0           0
           0           0           0           0           0           0
           0           0           0           0           0           0
           0           0           0           0
Num RLSW                                   I               52
RLSW                                       R   N=          52
  1.00000000E+00  1.00000000E+00  1.00000000E+00  1.00000000E+00  5.40000000E-01
  0.00000000E+00  0.00000000E+00  1.00000000E+00  0.00000000E+00  0.00000000E+00
  0.00000000E+00  0.00000000E+00  1.00000000E+00  0.00000000E+00  0.00000000E+00
  0.00000000E+00  0.00000000E+00  1.00000000E+00  0.00000000E+00  0.00000000E+00
  0.00000000E+00  0.00000000E+00  1.00000000E+00  0.00000000E+00  0.00000000E+00
  0.00000000E+00  0.00000000E+00  1.00000000E+00  0.00000000E+00  0.00000000E+00
  0.00000000E+00  0.00000000E+00  1.00000000E+00  0.00000000E+00  0.00000000E+00
  0.00000000E+00  0.00000000E+00  0.00000000E+00  1.00000000E+00  1.00000000E+00
  0.00000000E+00  1.00000000E+00  0.00000000E+00  0.00000000E+00  0.00000000E+00
  0.00000000E+00  0.00000000E+00  0.00000000E+00  0.00000000E+00  0.00000000E+00
  0.00000000E+00  0.00000000E+00
MxBond                                     I                3
NBond                                      I   N=          11
           2           3           3           3           3           3
           1           1           1           1           1
IBond                                      I   N=          33
           2           6           0           1           3           8
           2           4           9           3           5          10
           4           6          11           1           5           7
           6           0           0           2           0           0
           3           0           0           4           0           0
           5           0           0
RBond                                      R   N=          33