Neutral Radical (removed 2) 1_4                                         
Freq      UM062X                                                      6-311++G(d,p)       
Number of atoms                            I               11
Info1-9                                    I   N=           9
           8           6        1002           0           0         100
           6          18       -5502
Full Title                                 C   N=           3
Neutral Radical (removed 2) 1_4     
Route                                      C   N=           5
# opt freq 6-311++g(d,p) guess=read geom=allcheck m062x     
Charge                                     I                0
Multiplicity                               I                2
Number of electrons                        I               73
Number of alpha electrons                  I               37
Number of beta electrons                   I               36
Number of basis functions                  I              213
Number of independent functions            I              213
Number of point charges in /Mol/           I                0
Number of translation vectors              I                0
Atomic numbers                             I   N=          11
           6           6           6           6           6           6
          17           1          17           1           1
Nuclear charges                            R   N=          11
  6.00000000E+00  6.00000000E+00  6.00000000E+00  6.00000000E+00  6.00000000E+00
  6.00000000E+00  1.70000000E+01  1.00000000E+00  1.70000000E+01  1.00000000E+00
  1.00000000E+00
Current cartesian coordinates              R   N=          33
  4.10008423E-03 -2.57585991E+00  4.77630626E-32 -2.30428065E+00 -1.40245182E+00
 -9.86076132E-32 -2.26661745E+00  1.23407718E+00 -4.93038066E-32 -2.22044605E-16
  2.56407874E+00  2.23407874E-32  2.28600636E+00  1.26828221E+00 -4.93038066E-32
  2.29204753E+00 -1.36445428E+00  0.00000000E+00  5.11053091E+00 -3.04778194E+00
  0.00000000E+00 -4.07149533E+00 -2.43413539E+00  0.00000000E+00 -5.11237344E+00
  2.88290276E+00  0.00000000E+00 -2.64290031E-02  4.60826682E+00  6.24001302E-32
  4.06171207E+00  2.28678182E+00  0.00000000E+00
Number of symbols in /Mol/                 I                0
Force Field                                I                0
Atom Types                                 C   N=          11
                                                            
                                                            
            
Int Atom Types                             I   N=          11
           0           0           0           0           0           0
           0           0           0           0           0
MM charges                                 R   N=          11
  0.00000000E+00  0.00000000E+00  0.00000000E+00  0.00000000E+00  0.00000000E+00
  0.00000000E+00  0.00000000E+00  0.00000000E+00  0.00000000E+00  0.00000000E+00
  0.00000000E+00
Integer atomic weights                     I   N=          11
          12          12          12          12          12          12
          35           1          35           1           1
Real atomic weights                        R   N=          11
  1.20000000E+01  1.20000000E+01  1.20000000E+01  1.20000000E+01  1.20000000E+01
  1.20000000E+01  3.49688527E+01  1.00782504E+00  3.49688527E+01  1.00782504E+00
  1.00782504E+00
Atom fragment info                         I   N=          11
           0           0           0           0           0           0
           0           0           0           0           0
Atom residue num                           I   N=          11
           0           0           0           0           0           0
           0           0           0           0           0
Nuclear spins                              I   N=          11
           0           0           0           0           0           0
           3           1           3           1           1
Nuclear ZEff                               R   N=          11
 -3.60000000E+00 -3.60000000E+00 -3.60000000E+00 -3.60000000E+00 -3.60000000E+00
 -3.60000000E+00 -1.42400000E+01 -1.00000000E+00 -1.42400000E+01 -1.00000000E+00
 -1.00000000E+00
Nuclear ZNuc                               R   N=          11
  6.00000000E+00  6.00000000E+00  6.00000000E+00  6.00000000E+00  6.00000000E+00
  6.00000000E+00  1.70000000E+01  1.00000000E+00  1.70000000E+01  1.00000000E+00
  1.00000000E+00
Nuclear QMom                               R   N=          11
  0.00000000E+00  0.00000000E+00  0.00000000E+00  0.00000000E+00  0.00000000E+00
  0.00000000E+00 -8.16500000E+00  0.00000000E+00 -8.16500000E+00  0.00000000E+00
  0.00000000E+00
Nuclear GFac                               R   N=          11
  0.00000000E+00  0.00000000E+00  0.00000000E+00  0.00000000E+00  0.00000000E+00
  0.00000000E+00  8.21874000E-01  2.79284600E+00  8.21874000E-01  2.79284600E+00
  2.79284600E+00
MicOpt                                     I   N=          11
          -1          -1          -1          -1          -1          -1
          -1          -1          -1          -1          -1
Number of residues                         I                0
Number of secondary structures             I                0
Redundant internal dimensions              I   N=           4
          47          11          16          20
Redundant internal coordinate indices      I   N=         188
           1           2           0           0           1           6
           0           0           2           3           0           0
           2           8           0           0           3           4
           0           0           3           9           0           0
           4           5           0           0           4          10
           0           0           5           6           0           0
           5          11           0           0           6           7
           0           0           2           1           6           0
           1           2           3           0           1           2
           8           0           3           2           8           0
           2           3           4           0           2           3
           9           0           4           3           9           0
           3           4           5           0           3           4
          10           0           5           4          10           0
           4           5           6           0           4           5
          11           0           6           5          11           0
           1           6           5           0           1           6
           7           0           5           6           7           0
           6           1           2           3           6           1
           2           8           2           1           6           5
           2           1           6           7           1           2
           3           4           1           2           3           9
           8           2           3           4           8           2
           3           9           2           3           4           5
           2           3           4          10           9           3
           4           5           9           3           4          10
           3           4           5           6           3           4
           5          11          10           4           5           6
          10           4           5          11           4           5
           6           1           4           5           6           7
          11           5           6           1          11           5
           6           7
Redundant internal coordinates             R   N=          47
  2.58949960E+00  2.58886213E+00  2.63679799E+00  2.04631833E+00  2.62801423E+00
  3.28891365E+00  2.62772026E+00  2.04435892E+00  2.63274341E+00  2.04706429E+00
  3.28290125E+00  2.18436029E+00  2.02679771E+00  2.14289143E+00  2.11349616E+00
  2.11572131E+00  2.08164543E+00  2.08581856E+00  2.09527274E+00  2.08850901E+00
  2.09940356E+00  2.08877006E+00  2.10515119E+00  2.08926406E+00  2.05544850E+00
  2.11625388E+00  2.11148293E+00 -0.00000000E+00  3.14159265E+00  0.00000000E+00
  3.14159265E+00  0.00000000E+00  3.14159265E+00  3.14159265E+00  0.00000000E+00
  0.00000000E+00  3.14159265E+00  3.14159265E+00 -0.00000000E+00 -0.00000000E+00
  3.14159265E+00  3.14159265E+00 -0.00000000E+00  0.00000000E+00  3.14159265E+00
  3.14159265E+00  0.00000000E+00
ZRed-IntVec                                I   N=          47
           0           0           0           0           0           0
           0           0           0           0           0           0
           0           0           0           0           0           0
           0           0           0           0           0           0
           0           0           0           0           0           0
           0           0           0           0           0           0
           0           0           0           0           0           0
           0           0           0           0           0
ZRed-FPVec                                 R   N=          47
  0.00000000E+00  0.00000000E+00  0.00000000E+00  0.00000000E+00  0.00000000E+00
  0.00000000E+00  0.00000000E+00  0.00000000E+00  0.00000000E+00  0.00000000E+00
  0.00000000E+00  0.00000000E+00  0.00000000E+00  0.00000000E+00  0.00000000E+00
  0.00000000E+00  0.00000000E+00  0.00000000E+00  0.00000000E+00  0.00000000E+00
  0.00000000E+00  0.00000000E+00  0.00000000E+00  0.00000000E+00  0.00000000E+00
  0.00000000E+00  0.00000000E+00  0.00000000E+00  0.00000000E+00  0.00000000E+00
  0.00000000E+00  0.00000000E+00  0.00000000E+00  0.00000000E+00  0.00000000E+00
  0.00000000E+00  0.00000000E+00  0.00000000E+00  0.00000000E+00  0.00000000E+00
  0.00000000E+00  0.00000000E+00  0.00000000E+00  0.00000000E+00  0.00000000E+00
  0.00000000E+00  0.00000000E+00
ZRed-Constraint1                           R   N=          47
  2.58949960E+00  2.58886213E+00  2.63679799E+00  2.04631833E+00  2.62801423E+00
  3.28891365E+00  2.62772026E+00  2.04435892E+00  2.63274341E+00  2.04706429E+00
  3.28290125E+00  2.18436029E+00  2.02679771E+00  2.14289143E+00  2.11349616E+00
  2.11572131E+00  2.08164543E+00  2.08581856E+00  2.09527274E+00  2.08850901E+00
  2.09940356E+00  2.08877006E+00  2.10515119E+00  2.08926406E+00  2.05544850E+00
  2.11625388E+00  2.11148293E+00  0.00000000E+00  3.14159265E+00 -0.00000000E+00
  3.14159265E+00  0.00000000E+00  3.14159265E+00  3.14159265E+00 -0.00000000E+00
  0.00000000E+00  3.14159265E+00  3.14159265E+00  0.00000000E+00 -0.00000000E+00
  3.14159265E+00  3.14159265E+00  0.00000000E+00  0.00000000E+00  3.14159265E+00
  3.14159265E+00 -0.00000000E+00
ZRed-Constraint2                           R   N=          47
  2.58592794E+00  2.60086688E+00  2.67179285E+00  2.07368475E+00  2.66114281E+00
  3.19727769E+00  2.64506160E+00  2.08091026E+00  2.67135480E+00  2.07764142E+00
  3.17940358E+00  2.25139425E+00  2.00034318E+00  2.14343147E+00  2.13941065E+00
  2.09834288E+00  2.09029669E+00  2.09454574E+00  2.11690868E+00  2.08652325E+00
  2.07975338E+00  2.08910123E+00  2.09768548E+00  2.09639859E+00  2.01028040E+00
  2.14309774E+00  2.12980717E+00  0.00000000E+00  3.14159265E+00  0.00000000E+00
  3.14159265E+00  0.00000000E+00  3.14159265E+00  3.14159265E+00  0.00000000E+00
  0.00000000E+00  3.14159265E+00  3.14159265E+00  0.00000000E+00  0.00000000E+00
  3.14159265E+00  3.14159265E+00  0.00000000E+00  0.00000000E+00  3.14159265E+00
  3.14159265E+00  0.00000000E+00
SymInf integers                            I   N=          26
           1           2           1           1           1           1
           1          -1           0           0           0           0
           0           0           0           0           0           0
           0           0           0           0           0           0
           0           0
RotTr to input orientation                 R   N=          12
 -4.77373591E-01 -8.78700435E-01  1.22464680E-16  8.78700435E-01 -4.77373591E-01
  0.00000000E+00  5.84614041E-17  1.07609768E-16  1.00000000E+00 -3.57135148E+00
 -9.74879161E-01  4.35659674E-18
Number of contracted shells                I               77
Number of primitive shells                 I              149
Pure/Cartesian d shells                    I                0
Pure/Cartesian f shells                    I                0
Highest angular momentum                   I                2
Largest degree of contraction              I                6
Shell types                                I   N=          77
           0          -1          -1          -1          -1          -2
           0          -1          -1          -1          -1          -2
           0          -1          -1          -1          -1          -2
           0          -1          -1          -1          -1          -2
           0          -1          -1          -1          -1          -2
           0          -1          -1          -1          -1          -2
           0           0           0           0           0           0
          -1           1           1           1           1           1
          -2           0           0           0           0           1
           0           0           0           0           0           0
          -1           1           1           1           1           1
          -2           0           0           0           0           1
           0           0           0           0           1
Number of primitives per shell             I   N=          77
           6           3           1           1           1           1
           6           3           1           1           1           1
           6           3           1           1           1           1
           6           3           1           1           1           1
           6           3           1           1           1           1
           6           3           1           1           1           1
           6           3           1           1           1           1
           1           5           2           1           1           1
           1           3           1           1           1           1
           6           3           1           1           1           1
           1           5           2           1           1           1
           1           3           1           1           1           1
           3           1           1           1           1
Shell to atom map                          I   N=          77
           1           1           1           1           1           1
           2           2           2           2           2           2
           3           3           3           3           3           3
           4           4           4           4           4           4
           5           5           5           5           5           5
           6           6           6           6           6           6
           7           7           7           7           7           7
           7           7           7           7           7           7
           7           8           8           8           8           8
           9           9           9           9           9           9
           9           9           9           9           9           9
           9          10          10          10          10          10
          11          11          11          11          11
Primitive exponents                        R   N=         149
  4.56324000E+03  6.82024000E+02  1.54973000E+02  4.44553000E+01  1.30290000E+01
  1.82773000E+00  2.09642000E+01  4.80331000E+00  1.45933000E+00  4.83456000E-01
  1.45585000E-01  4.38000000E-02  6.26000000E-01  4.56324000E+03  6.82024000E+02
  1.54973000E+02  4.44553000E+01  1.30290000E+01  1.82773000E+00  2.09642000E+01
  4.80331000E+00  1.45933000E+00  4.83456000E-01  1.45585000E-01  4.38000000E-02
  6.26000000E-01  4.56324000E+03  6.82024000E+02  1.54973000E+02  4.44553000E+01
  1.30290000E+01  1.82773000E+00  2.09642000E+01  4.80331000E+00  1.45933000E+00
  4.83456000E-01  1.45585000E-01  4.38000000E-02  6.26000000E-01  4.56324000E+03
  6.82024000E+02  1.54973000E+02  4.44553000E+01  1.30290000E+01  1.82773000E+00
  2.09642000E+01  4.80331000E+00  1.45933000E+00  4.83456000E-01  1.45585000E-01
  4.38000000E-02  6.26000000E-01  4.56324000E+03  6.82024000E+02  1.54973000E+02
  4.44553000E+01  1.30290000E+01  1.82773000E+00  2.09642000E+01  4.80331000E+00
  1.45933000E+00  4.83456000E-01  1.45585000E-01  4.38000000E-02  6.26000000E-01
  4.56324000E+03  6.82024000E+02  1.54973000E+02  4.44553000E+01  1.30290000E+01
  1.82773000E+00  2.09642000E+01  4.80331000E+00  1.45933000E+00  4.83456000E-01
  1.45585000E-01  4.38000000E-02  6.26000000E-01  1.05819000E+05  1.58720000E+04
  3.61965000E+03  1.03080000E+03  3.39908000E+02  1.24538000E+02  1.24538000E+02
  4.95135000E+01  2.08056000E+01  6.58346000E+00  2.56468000E+00  5.59763000E-01
  1.83273000E-01  4.83000000E-02  5.89776000E+02  1.39849000E+02  4.51413000E+01
  1.68733000E+01  2.77152000E+00  6.74110000E+00  2.77152000E+00  1.02387000E+00
  3.81368000E-01  1.09437000E-01  7.50000000E-01  3.38650000E+01  5.09479000E+00
  1.15879000E+00  3.25840000E-01  1.02741000E-01  3.60000000E-02  7.50000000E-01
  1.05819000E+05  1.58720000E+04  3.61965000E+03  1.03080000E+03  3.39908000E+02
  1.24538000E+02  1.24538000E+02  4.95135000E+01  2.08056000E+01  6.58346000E+00
  2.56468000E+00  5.59763000E-01  1.83273000E-01  4.83000000E-02  5.89776000E+02
  1.39849000E+02  4.51413000E+01  1.68733000E+01  2.77152000E+00  6.74110000E+00
  2.77152000E+00  1.02387000E+00  3.81368000E-01  1.09437000E-01  7.50000000E-01
  3.38650000E+01  5.09479000E+00  1.15879000E+00  3.25840000E-01  1.02741000E-01
  3.60000000E-02  7.50000000E-01  3.38650000E+01  5.09479000E+00  1.15879000E+00
  3.25840000E-01  1.02741000E-01  3.60000000E-02  7.50000000E-01
Contraction coefficients                   R   N=         149
  1.96665025E-03  1.52306019E-02  7.61269097E-02  2.60801033E-01  6.16462078E-01
  2.21006028E-01  1.14660081E-01  9.19999648E-01 -3.03068213E-03  1.00000000E+00
  1.00000000E+00  1.00000000E+00  1.00000000E+00  1.96665025E-03  1.52306019E-02
  7.61269097E-02  2.60801033E-01  6.16462078E-01  2.21006028E-01  1.14660081E-01
  9.19999648E-01 -3.03068213E-03  1.00000000E+00  1.00000000E+00  1.00000000E+00
  1.00000000E+00  1.96665025E-03  1.52306019E-02  7.61269097E-02  2.60801033E-01
  6.16462078E-01  2.21006028E-01  1.14660081E-01  9.19999648E-01 -3.03068213E-03
  1.00000000E+00  1.00000000E+00  1.00000000E+00  1.00000000E+00  1.96665025E-03
  1.52306019E-02  7.61269097E-02  2.60801033E-01  6.16462078E-01  2.21006028E-01
  1.14660081E-01  9.19999648E-01 -3.03068213E-03  1.00000000E+00  1.00000000E+00
  1.00000000E+00  1.00000000E+00  1.96665025E-03  1.52306019E-02  7.61269097E-02
  2.60801033E-01  6.16462078E-01  2.21006028E-01  1.14660081E-01  9.19999648E-01
 -3.03068213E-03  1.00000000E+00  1.00000000E+00  1.00000000E+00  1.00000000E+00
  1.96665025E-03  1.52306019E-02  7.61269097E-02  2.60801033E-01  6.16462078E-01
  2.21006028E-01  1.14660081E-01  9.19999648E-01 -3.03068213E-03  1.00000000E+00
  1.00000000E+00  1.00000000E+00  1.00000000E+00  7.38000247E-04  5.71800191E-03
  2.94950099E-02  1.17286039E-01  3.62949121E-01  5.84149195E-01  1.34176973E-01
  6.24249876E-01  2.91755942E-01  1.00000000E+00  1.00000000E+00  1.00000000E+00
  1.00000000E+00  1.00000000E+00  3.66556935E-03  2.83679194E-02  1.24756603E-01
  3.39654631E-01  7.47585963E-01 -1.57224381E+00  9.92388882E-01  1.00000000E+00
  1.00000000E+00  1.00000000E+00  1.00000000E+00  2.54938145E-02  1.90373109E-01
  8.52161486E-01  1.00000000E+00  1.00000000E+00  1.00000000E+00  1.00000000E+00
  7.38000247E-04  5.71800191E-03  2.94950099E-02  1.17286039E-01  3.62949121E-01
  5.84149195E-01  1.34176973E-01  6.24249876E-01  2.91755942E-01  1.00000000E+00
  1.00000000E+00  1.00000000E+00  1.00000000E+00  1.00000000E+00  3.66556935E-03
  2.83679194E-02  1.24756603E-01  3.39654631E-01  7.47585963E-01 -1.57224381E+00
  9.92388882E-01  1.00000000E+00  1.00000000E+00  1.00000000E+00  1.00000000E+00
  2.54938145E-02  1.90373109E-01  8.52161486E-01  1.00000000E+00  1.00000000E+00
  1.00000000E+00  1.00000000E+00  2.54938145E-02  1.90373109E-01  8.52161486E-01
  1.00000000E+00  1.00000000E+00  1.00000000E+00  1.00000000E+00
P(S=P) Contraction coefficients            R   N=         149
  0.00000000E+00  0.00000000E+00  0.00000000E+00  0.00000000E+00  0.00000000E+00
  0.00000000E+00  4.02486927E-02  2.37593957E-01  8.15853851E-01  1.00000000E+00
  1.00000000E+00  1.00000000E+00  0.00000000E+00  0.00000000E+00  0.00000000E+00
  0.00000000E+00  0.00000000E+00  0.00000000E+00  0.00000000E+00  4.02486927E-02
  2.37593957E-01  8.15853851E-01  1.00000000E+00  1.00000000E+00  1.00000000E+00
  0.00000000E+00  0.00000000E+00  0.00000000E+00  0.00000000E+00  0.00000000E+00
  0.00000000E+00  0.00000000E+00  4.02486927E-02  2.37593957E-01  8.15853851E-01
  1.00000000E+00  1.00000000E+00  1.00000000E+00  0.00000000E+00  0.00000000E+00
  0.00000000E+00  0.00000000E+00  0.00000000E+00  0.00000000E+00  0.00000000E+00
  4.02486927E-02  2.37593957E-01  8.15853851E-01  1.00000000E+00  1.00000000E+00
  1.00000000E+00  0.00000000E+00  0.00000000E+00  0.00000000E+00  0.00000000E+00
  0.00000000E+00  0.00000000E+00  0.00000000E+00  4.02486927E-02  2.37593957E-01
  8.15853851E-01  1.00000000E+00  1.00000000E+00  1.00000000E+00  0.00000000E+00
  0.00000000E+00  0.00000000E+00  0.00000000E+00  0.00000000E+00  0.00000000E+00
  0.00000000E+00  4.02486927E-02  2.37593957E-01  8.15853851E-01  1.00000000E+00
  1.00000000E+00  1.00000000E+00  0.00000000E+00  0.00000000E+00  0.00000000E+00
  0.00000000E+00  0.00000000E+00  0.00000000E+00  0.00000000E+00  0.00000000E+00
  0.00000000E+00  0.00000000E+00  0.00000000E+00  0.00000000E+00  0.00000000E+00
  0.00000000E+00  1.00000000E+00  0.00000000E+00  0.00000000E+00  0.00000000E+00
  0.00000000E+00  0.00000000E+00  0.00000000E+00  0.00000000E+00  0.00000000E+00
  0.00000000E+00  0.00000000E+00  0.00000000E+00  0.00000000E+00  0.00000000E+00
  0.00000000E+00  0.00000000E+00  0.00000000E+00  0.00000000E+00  0.00000000E+00
  0.00000000E+00  0.00000000E+00  0.00000000E+00  0.00000000E+00  0.00000000E+00
  0.00000000E+00  0.00000000E+00  0.00000000E+00  0.00000000E+00  0.00000000E+00
  0.00000000E+00  0.00000000E+00  0.00000000E+00  1.00000000E+00  0.00000000E+00
  0.00000000E+00  0.00000000E+00  0.00000000E+00  0.00000000E+00  0.00000000E+00
  0.00000000E+00  0.00000000E+00  0.00000000E+00  0.00000000E+00  0.00000000E+00
  0.00000000E+00  0.00000000E+00  0.00000000E+00  0.00000000E+00  0.00000000E+00
  0.00000000E+00  0.00000000E+00  0.00000000E+00  0.00000000E+00  0.00000000E+00
  0.00000000E+00  0.00000000E+00  0.00000000E+00  0.00000000E+00
Coordinates of each shell                  R   N=         231
  4.10008423E-03 -2.57585991E+00  2.38815313E-32  4.10008423E-03 -2.57585991E+00
  2.38815313E-32  4.10008423E-03 -2.57585991E+00  2.38815313E-32  4.10008423E-03
 -2.57585991E+00  2.38815313E-32  4.10008423E-03 -2.57585991E+00  2.38815313E-32
  4.10008423E-03 -2.57585991E+00  2.38815313E-32 -2.30428065E+00 -1.40245182E+00
 -4.93038066E-32 -2.30428065E+00 -1.40245182E+00 -4.93038066E-32 -2.30428065E+00
 -1.40245182E+00 -4.93038066E-32 -2.30428065E+00 -1.40245182E+00 -4.93038066E-32
 -2.30428065E+00 -1.40245182E+00 -4.93038066E-32 -2.30428065E+00 -1.40245182E+00
 -4.93038066E-32 -2.26661745E+00  1.23407718E+00 -4.93038066E-32 -2.26661745E+00
  1.23407718E+00 -4.93038066E-32 -2.26661745E+00  1.23407718E+00 -4.93038066E-32
 -2.26661745E+00  1.23407718E+00 -4.93038066E-32 -2.26661745E+00  1.23407718E+00
 -4.93038066E-32 -2.26661745E+00  1.23407718E+00 -4.93038066E-32 -2.22044605E-16
  2.56407874E+00  2.46519033E-32 -2.22044605E-16  2.56407874E+00  2.46519033E-32
 -2.22044605E-16  2.56407874E+00  2.46519033E-32 -2.22044605E-16  2.56407874E+00
  2.46519033E-32 -2.22044605E-16  2.56407874E+00  2.46519033E-32 -2.22044605E-16
  2.56407874E+00  2.46519033E-32  2.28600636E+00  1.26828221E+00  0.00000000E+00
  2.28600636E+00  1.26828221E+00  0.00000000E+00  2.28600636E+00  1.26828221E+00
  0.00000000E+00  2.28600636E+00  1.26828221E+00  0.00000000E+00  2.28600636E+00
  1.26828221E+00  0.00000000E+00  2.28600636E+00  1.26828221E+00  0.00000000E+00
  2.29204753E+00 -1.36445428E+00  0.00000000E+00  2.29204753E+00 -1.36445428E+00
  0.00000000E+00  2.29204753E+00 -1.36445428E+00  0.00000000E+00  2.29204753E+00
 -1.36445428E+00  0.00000000E+00  2.29204753E+00 -1.36445428E+00  0.00000000E+00
  2.29204753E+00 -1.36445428E+00  0.00000000E+00  5.11053091E+00 -3.04778194E+00
  0.00000000E+00  5.11053091E+00 -3.04778194E+00  0.00000000E+00  5.11053091E+00
 -3.04778194E+00  0.00000000E+00  5.11053091E+00 -3.04778194E+00  0.00000000E+00
  5.11053091E+00 -3.04778194E+00  0.00000000E+00  5.11053091E+00 -3.04778194E+00
  0.00000000E+00  5.11053091E+00 -3.04778194E+00  0.00000000E+00  5.11053091E+00
 -3.04778194E+00  0.00000000E+00  5.11053091E+00 -3.04778194E+00  0.00000000E+00
  5.11053091E+00 -3.04778194E+00  0.00000000E+00  5.11053091E+00 -3.04778194E+00
  0.00000000E+00  5.11053091E+00 -3.04778194E+00  0.00000000E+00  5.11053091E+00
 -3.04778194E+00  0.00000000E+00 -4.07149533E+00 -2.43413539E+00  0.00000000E+00
 -4.07149533E+00 -2.43413539E+00  0.00000000E+00 -4.07149533E+00 -2.43413539E+00
  0.00000000E+00 -4.07149533E+00 -2.43413539E+00  0.00000000E+00 -4.07149533E+00
 -2.43413539E+00  0.00000000E+00 -5.11237344E+00  2.88290276E+00  0.00000000E+00
 -5.11237344E+00  2.88290276E+00  0.00000000E+00 -5.11237344E+00  2.88290276E+00
  0.00000000E+00 -5.11237344E+00  2.88290276E+00  0.00000000E+00 -5.11237344E+00
  2.88290276E+00  0.00000000E+00 -5.11237344E+00  2.88290276E+00  0.00000000E+00
 -5.11237344E+00  2.88290276E+00  0.00000000E+00 -5.11237344E+00  2.88290276E+00
  0.00000000E+00 -5.11237344E+00  2.88290276E+00  0.00000000E+00 -5.11237344E+00
  2.88290276E+00  0.00000000E+00 -5.11237344E+00  2.88290276E+00  0.00000000E+00
 -5.11237344E+00  2.88290276E+00  0.00000000E+00 -5.11237344E+00  2.88290276E+00
  0.00000000E+00 -2.64290031E-02  4.60826682E+00  3.12000651E-32 -2.64290031E-02
  4.60826682E+00  3.12000651E-32 -2.64290031E-02  4.60826682E+00  3.12000651E-32
 -2.64290031E-02  4.60826682E+00  3.12000651E-32 -2.64290031E-02  4.60826682E+00
  3.12000651E-32  4.06171207E+00  2.28678182E+00  0.00000000E+00  4.06171207E+00
  2.28678182E+00  0.00000000E+00  4.06171207E+00  2.28678182E+00  0.00000000E+00
  4.06171207E+00  2.28678182E+00  0.00000000E+00  4.06171207E+00  2.28678182E+00
  0.00000000E+00
Num ILSW                                   I              100
ILSW                                       I   N=         100
           1           0           0           0           2           0
           0           0           0           0        4336          -1
           5           0           0           0           2           0
           0           0           1           0           1           0
           1           0           0           0           0           0
           0           0      100000           0          -1           0
           0           0           0           0           0           0
           0           0           0           1           0           0
           0 -2000000000           1           0           0           0
           0           0           4          52           0           0
           0           0          55           0           0           0
           0           0           0           0           0           1
           0           0           0           0           0           0
           0           0           0           0           0           0
           0           0           0           0           0           0
           0           0           0           0           0           0
           0           0           0           0
Num RLSW                                   I               52
RLSW                                       R   N=          52
  1.00000000E+00  1.00000000E+00  1.00000000E+00  1.00000000E+00  5.40000000E-01
  0.00000000E+00  0.00000000E+00  1.00000000E+00  0.00000000E+00  0.00000000E+00
  0.00000000E+00  0.00000000E+00  1.00000000E+00  0.00000000E+00  0.00000000E+00
  0.00000000E+00  0.00000000E+00  1.00000000E+00  0.00000000E+00  0.00000000E+00
  0.00000000E+00  0.00000000E+00  1.00000000E+00  0.00000000E+00  0.00000000E+00
  0.00000000E+00  0.00000000E+00  1.00000000E+00  0.00000000E+00  0.00000000E+00
  0.00000000E+00  0.00000000E+00  1.00000000E+00  0.00000000E+00  0.00000000E+00
  0.00000000E+00  0.00000000E+00  0.00000000E+00  1.00000000E+00  1.00000000E+00
  0.00000000E+00  1.00000000E+00  0.00000000E+00  0.00000000E+00  0.00000000E+00
  0.00000000E+00  0.00000000E+00  0.00000000E+00  0.00000000E+00  0.00000000E+00
  0.00000000E+00  0.00000000E+00
MxBond                                     I                3
NBond                                      I   N=          11
           2           3           3           3           3           3
           1           1           1           1           1
IBond                                      I   N=          33
           2           6           0           1           3           8
           2           4           9           3           5          10
           4           6          11           1           5           7
           6           0           0           2           0           0
           3           0           0           4           0           0
           5           0           0
RBond                                      R   N=          33