1-Chloro-Benzene Anion Radical (1)                                      
Freq      UM062X                                                      6-311++G(d,p)       
Number of atoms                            I               12
Info1-9                                    I   N=           9
           8           6        1002           0           0         100
           6          18       -5502
Full Title                                 C   N=           3
1-Chloro-Benzene Anion Radical (1)  
Route                                      C   N=           5
# opt freq 6-311++g(d,p) guess=read geom=allcheck m062x     
Charge                                     I               -1
Multiplicity                               I                2
Number of electrons                        I               59
Number of alpha electrons                  I               30
Number of beta electrons                   I               29
Number of basis functions                  I              197
Number of independent functions            I              197
Number of point charges in /Mol/           I                0
Number of translation vectors              I                0
Atomic numbers                             I   N=          12
           6           6           6           6           6           6
          17           1           1           1           1           1
Nuclear charges                            R   N=          12
  6.00000000E+00  6.00000000E+00  6.00000000E+00  6.00000000E+00  6.00000000E+00
  6.00000000E+00  1.70000000E+01  1.00000000E+00  1.00000000E+00  1.00000000E+00
  1.00000000E+00  1.00000000E+00
Current cartesian coordinates              R   N=          36
 -2.29326478E+00 -3.33444627E-01  1.23259516E-32 -2.27326302E+00 -2.96133711E+00
  4.93038066E-32  1.08031642E-07 -4.27592144E+00 -9.86076132E-32  2.27326312E+00
 -2.96133705E+00 -1.47911420E-31  2.29326495E+00 -3.33444666E-01 -4.31408308E-32
  1.08031641E-07  9.36504065E-01  2.46519033E-32  8.28177360E-08  4.26159067E+00
  9.86076132E-32 -4.05289602E+00  7.11138083E-01  7.39557099E-32 -4.04923078E+00
 -3.98485569E+00  0.00000000E+00  1.90324398E-07 -6.32572133E+00 -3.94430453E-31
  4.04922836E+00 -3.98485422E+00 -4.93038066E-31  4.05289391E+00  7.11136688E-01
 -7.39557099E-32
Number of symbols in /Mol/                 I                0
Force Field                                I                0
Atom Types                                 C   N=          12
                                                            
                                                            
                        
Int Atom Types                             I   N=          12
           0           0           0           0           0           0
           0           0           0           0           0           0
MM charges                                 R   N=          12
  0.00000000E+00  0.00000000E+00  0.00000000E+00  0.00000000E+00  0.00000000E+00
  0.00000000E+00  0.00000000E+00  0.00000000E+00  0.00000000E+00  0.00000000E+00
  0.00000000E+00  0.00000000E+00
Integer atomic weights                     I   N=          12
          12          12          12          12          12          12
          35           1           1           1           1           1
Real atomic weights                        R   N=          12
  1.20000000E+01  1.20000000E+01  1.20000000E+01  1.20000000E+01  1.20000000E+01
  1.20000000E+01  3.49688527E+01  1.00782504E+00  1.00782504E+00  1.00782504E+00
  1.00782504E+00  1.00782504E+00
Atom fragment info                         I   N=          12
           0           0           0           0           0           0
           0           0           0           0           0           0
Atom residue num                           I   N=          12
           0           0           0           0           0           0
           0           0           0           0           0           0
Nuclear spins                              I   N=          12
           0           0           0           0           0           0
           3           1           1           1           1           1
Nuclear ZEff                               R   N=          12
 -3.60000000E+00 -3.60000000E+00 -3.60000000E+00 -3.60000000E+00 -3.60000000E+00
 -3.60000000E+00 -1.42400000E+01 -1.00000000E+00 -1.00000000E+00 -1.00000000E+00
 -1.00000000E+00 -1.00000000E+00
Nuclear ZNuc                               R   N=          12
  6.00000000E+00  6.00000000E+00  6.00000000E+00  6.00000000E+00  6.00000000E+00
  6.00000000E+00  1.70000000E+01  1.00000000E+00  1.00000000E+00  1.00000000E+00
  1.00000000E+00  1.00000000E+00
Nuclear QMom                               R   N=          12
  0.00000000E+00  0.00000000E+00  0.00000000E+00  0.00000000E+00  0.00000000E+00
  0.00000000E+00 -8.16500000E+00  0.00000000E+00  0.00000000E+00  0.00000000E+00
  0.00000000E+00  0.00000000E+00
Nuclear GFac                               R   N=          12
  0.00000000E+00  0.00000000E+00  0.00000000E+00  0.00000000E+00  0.00000000E+00
  0.00000000E+00  8.21874000E-01  2.79284600E+00  2.79284600E+00  2.79284600E+00
  2.79284600E+00  2.79284600E+00
MicOpt                                     I   N=          12
          -1          -1          -1          -1          -1          -1
          -1          -1          -1          -1          -1          -1
Number of residues                         I                0
Number of secondary structures             I                0
Redundant internal dimensions              I   N=           4
          54          12          18          24
Redundant internal coordinate indices      I   N=         216
           1           2           0           0           1           6
           0           0           1           8           0           0
           2           3           0           0           2           9
           0           0           3           4           0           0
           3          10           0           0           4           5
           0           0           4          11           0           0
           5           6           0           0           5          12
           0           0           6           7           0           0
           2           1           6           0           2           1
           8           0           6           1           8           0
           1           2           3           0           1           2
           9           0           3           2           9           0
           2           3           4           0           2           3
          10           0           4           3          10           0
           3           4           5           0           3           4
          11           0           5           4          11           0
           4           5           6           0           4           5
          12           0           6           5          12           0
           1           6           5           0           1           6
           7           0           5           6           7           0
           6           1           2           3           6           1
           2           9           8           1           2           3
           8           1           2           9           2           1
           6           5           2           1           6           7
           8           1           6           5           8           1
           6           7           1           2           3           4
           1           2           3          10           9           2
           3           4           9           2           3          10
           2           3           4           5           2           3
           4          11          10           3           4           5
          10           3           4          11           3           4
           5           6           3           4           5          12
          11           4           5           6          11           4
           5          12           4           5           6           1
           4           5           6           7          12           5
           6           1          12           5           6           7
Redundant internal coordinates             R   N=          54
  2.62796860E+00  2.62141823E+00  2.04632723E+00  2.62599642E+00  2.04979311E+00
  2.62599636E+00  2.04979989E+00  2.62796850E+00  2.04979021E+00  2.62141821E+00
  2.04632458E+00  3.32508661E+00  2.06892065E+00  2.11413541E+00  2.10012925E+00
  2.10270387E+00  2.08600785E+00  2.09447359E+00  2.09299989E+00  2.09509273E+00
  2.09509269E+00  2.10270394E+00  2.09447353E+00  2.08600784E+00  2.06892064E+00
  2.11413543E+00  2.10012923E+00  2.13012162E+00  2.07653182E+00  2.07653186E+00
 -0.00000000E+00  3.14159265E+00  3.14159265E+00  0.00000000E+00  0.00000000E+00
  3.14159265E+00  3.14159265E+00  0.00000000E+00 -0.00000000E+00  3.14159265E+00
  3.14159265E+00  0.00000000E+00  0.00000000E+00  3.14159265E+00  3.14159265E+00
 -0.00000000E+00 -0.00000000E+00  3.14159265E+00  3.14159265E+00 -0.00000000E+00
 -0.00000000E+00  3.14159265E+00  3.14159265E+00 -0.00000000E+00
ZRed-IntVec                                I   N=          54
           0           0           0           0           0           0
           0           0           0           0           0           0
           0           0           0           0           0           0
           0           0           0           0           0           0
           0           0           0           0           0           0
           0           0           0           0           0           0
           0           0           0           0           0           0
           0           0           0           0           0           0
           0           0           0           0           0           0
ZRed-FPVec                                 R   N=          54
  0.00000000E+00  0.00000000E+00  0.00000000E+00  0.00000000E+00  0.00000000E+00
  0.00000000E+00  0.00000000E+00  0.00000000E+00  0.00000000E+00  0.00000000E+00
  0.00000000E+00  0.00000000E+00  0.00000000E+00  0.00000000E+00  0.00000000E+00
  0.00000000E+00  0.00000000E+00  0.00000000E+00  0.00000000E+00  0.00000000E+00
  0.00000000E+00  0.00000000E+00  0.00000000E+00  0.00000000E+00  0.00000000E+00
  0.00000000E+00  0.00000000E+00  0.00000000E+00  0.00000000E+00  0.00000000E+00
  0.00000000E+00  0.00000000E+00  0.00000000E+00  0.00000000E+00  0.00000000E+00
  0.00000000E+00  0.00000000E+00  0.00000000E+00  0.00000000E+00  0.00000000E+00
  0.00000000E+00  0.00000000E+00  0.00000000E+00  0.00000000E+00  0.00000000E+00
  0.00000000E+00  0.00000000E+00  0.00000000E+00  0.00000000E+00  0.00000000E+00
  0.00000000E+00  0.00000000E+00  0.00000000E+00  0.00000000E+00
ZRed-Constraint1                           R   N=          54
  2.62796860E+00  2.62141823E+00  2.04632723E+00  2.62599642E+00  2.04979311E+00
  2.62599636E+00  2.04979989E+00  2.62796850E+00  2.04979021E+00  2.62141821E+00
  2.04632458E+00  3.32508661E+00  2.06892065E+00  2.11413541E+00  2.10012925E+00
  2.10270387E+00  2.08600785E+00  2.09447359E+00  2.09299989E+00  2.09509273E+00
  2.09509269E+00  2.10270394E+00  2.09447353E+00  2.08600784E+00  2.06892064E+00
  2.11413543E+00  2.10012923E+00  2.13012162E+00  2.07653182E+00  2.07653186E+00
 -0.00000000E+00  3.14159265E+00  3.14159265E+00  0.00000000E+00  0.00000000E+00
  3.14159265E+00  3.14159265E+00  0.00000000E+00  0.00000000E+00  3.14159265E+00
  3.14159265E+00 -0.00000000E+00 -0.00000000E+00  3.14159265E+00  3.14159265E+00
  0.00000000E+00 -0.00000000E+00  3.14159265E+00  3.14159265E+00  0.00000000E+00
  0.00000000E+00  3.14159265E+00  3.14159265E+00 -0.00000000E+00
ZRed-Constraint2                           R   N=          54
  2.63846852E+00  2.64177677E+00  2.07534383E+00  2.64372728E+00  2.07606179E+00
  2.64373044E+00  2.62701403E+00  2.63847587E+00  2.07629187E+00  2.64177994E+00
  2.07556666E+00  3.26015100E+00  2.07243118E+00  2.11547198E+00  2.09528215E+00
  2.12826851E+00  2.07691844E+00  2.07799836E+00  2.05410071E+00  2.11454260E+00
  2.11454200E+00  2.12826610E+00  2.07799934E+00  2.07691987E+00  2.07242895E+00
  2.11547252E+00  2.09528384E+00  2.11087517E+00  2.08615470E+00  2.08615544E+00
  0.00000000E+00  3.14159265E+00  3.14159265E+00  0.00000000E+00 -0.00000000E+00
  3.14159265E+00  3.14159265E+00 -0.00000000E+00 -0.00000000E+00  3.14159265E+00
  3.14159265E+00  0.00000000E+00  0.00000000E+00  3.14159265E+00  3.14159265E+00
 -0.00000000E+00 -0.00000000E+00  3.14159265E+00  3.14159265E+00 -0.00000000E+00
  0.00000000E+00  3.14159265E+00  3.14159265E+00 -0.00000000E+00
SymInf integers                            I   N=          26
           1           2           1           1           1           1
           1          -1           0           0           0           0
           0           0           0           0           0           0
           0           0           0           0           0           0
           0           0
RotTr to input orientation                 R   N=          12
  5.23593194E-01 -8.51968407E-01 -2.72290654E-24 -8.51968407E-01 -5.23593194E-01
 -1.22464680E-16  1.04336037E-16  6.41216753E-17 -1.00000000E+00 -5.04455476E+00
 -1.69680516E+00  4.62986830E-19
Number of contracted shells                I               74
Number of primitive shells                 I              138
Pure/Cartesian d shells                    I                0
Pure/Cartesian f shells                    I                0
Highest angular momentum                   I                2
Largest degree of contraction              I                6
Shell types                                I   N=          74
           0          -1          -1          -1          -1          -2
           0          -1          -1          -1          -1          -2
           0          -1          -1          -1          -1          -2
           0          -1          -1          -1          -1          -2
           0          -1          -1          -1          -1          -2
           0          -1          -1          -1          -1          -2
           0           0           0           0           0           0
          -1           1           1           1           1           1
          -2           0           0           0           0           1
           0           0           0           0           1           0
           0           0           0           1           0           0
           0           0           1           0           0           0
           0           1
Number of primitives per shell             I   N=          74
           6           3           1           1           1           1
           6           3           1           1           1           1
           6           3           1           1           1           1
           6           3           1           1           1           1
           6           3           1           1           1           1
           6           3           1           1           1           1
           6           3           1           1           1           1
           1           5           2           1           1           1
           1           3           1           1           1           1
           3           1           1           1           1           3
           1           1           1           1           3           1
           1           1           1           3           1           1
           1           1
Shell to atom map                          I   N=          74
           1           1           1           1           1           1
           2           2           2           2           2           2
           3           3           3           3           3           3
           4           4           4           4           4           4
           5           5           5           5           5           5
           6           6           6           6           6           6
           7           7           7           7           7           7
           7           7           7           7           7           7
           7           8           8           8           8           8
           9           9           9           9           9          10
          10          10          10          10          11          11
          11          11          11          12          12          12
          12          12
Primitive exponents                        R   N=         138
  4.56324000E+03  6.82024000E+02  1.54973000E+02  4.44553000E+01  1.30290000E+01
  1.82773000E+00  2.09642000E+01  4.80331000E+00  1.45933000E+00  4.83456000E-01
  1.45585000E-01  4.38000000E-02  6.26000000E-01  4.56324000E+03  6.82024000E+02
  1.54973000E+02  4.44553000E+01  1.30290000E+01  1.82773000E+00  2.09642000E+01
  4.80331000E+00  1.45933000E+00  4.83456000E-01  1.45585000E-01  4.38000000E-02
  6.26000000E-01  4.56324000E+03  6.82024000E+02  1.54973000E+02  4.44553000E+01
  1.30290000E+01  1.82773000E+00  2.09642000E+01  4.80331000E+00  1.45933000E+00
  4.83456000E-01  1.45585000E-01  4.38000000E-02  6.26000000E-01  4.56324000E+03
  6.82024000E+02  1.54973000E+02  4.44553000E+01  1.30290000E+01  1.82773000E+00
  2.09642000E+01  4.80331000E+00  1.45933000E+00  4.83456000E-01  1.45585000E-01
  4.38000000E-02  6.26000000E-01  4.56324000E+03  6.82024000E+02  1.54973000E+02
  4.44553000E+01  1.30290000E+01  1.82773000E+00  2.09642000E+01  4.80331000E+00
  1.45933000E+00  4.83456000E-01  1.45585000E-01  4.38000000E-02  6.26000000E-01
  4.56324000E+03  6.82024000E+02  1.54973000E+02  4.44553000E+01  1.30290000E+01
  1.82773000E+00  2.09642000E+01  4.80331000E+00  1.45933000E+00  4.83456000E-01
  1.45585000E-01  4.38000000E-02  6.26000000E-01  1.05819000E+05  1.58720000E+04
  3.61965000E+03  1.03080000E+03  3.39908000E+02  1.24538000E+02  1.24538000E+02
  4.95135000E+01  2.08056000E+01  6.58346000E+00  2.56468000E+00  5.59763000E-01
  1.83273000E-01  4.83000000E-02  5.89776000E+02  1.39849000E+02  4.51413000E+01
  1.68733000E+01  2.77152000E+00  6.74110000E+00  2.77152000E+00  1.02387000E+00
  3.81368000E-01  1.09437000E-01  7.50000000E-01  3.38650000E+01  5.09479000E+00
  1.15879000E+00  3.25840000E-01  1.02741000E-01  3.60000000E-02  7.50000000E-01
  3.38650000E+01  5.09479000E+00  1.15879000E+00  3.25840000E-01  1.02741000E-01
  3.60000000E-02  7.50000000E-01  3.38650000E+01  5.09479000E+00  1.15879000E+00
  3.25840000E-01  1.02741000E-01  3.60000000E-02  7.50000000E-01  3.38650000E+01
  5.09479000E+00  1.15879000E+00  3.25840000E-01  1.02741000E-01  3.60000000E-02
  7.50000000E-01  3.38650000E+01  5.09479000E+00  1.15879000E+00  3.25840000E-01
  1.02741000E-01  3.60000000E-02  7.50000000E-01
Contraction coefficients                   R   N=         138
  1.96665025E-03  1.52306019E-02  7.61269097E-02  2.60801033E-01  6.16462078E-01
  2.21006028E-01  1.14660081E-01  9.19999648E-01 -3.03068213E-03  1.00000000E+00
  1.00000000E+00  1.00000000E+00  1.00000000E+00  1.96665025E-03  1.52306019E-02
  7.61269097E-02  2.60801033E-01  6.16462078E-01  2.21006028E-01  1.14660081E-01
  9.19999648E-01 -3.03068213E-03  1.00000000E+00  1.00000000E+00  1.00000000E+00
  1.00000000E+00  1.96665025E-03  1.52306019E-02  7.61269097E-02  2.60801033E-01
  6.16462078E-01  2.21006028E-01  1.14660081E-01  9.19999648E-01 -3.03068213E-03
  1.00000000E+00  1.00000000E+00  1.00000000E+00  1.00000000E+00  1.96665025E-03
  1.52306019E-02  7.61269097E-02  2.60801033E-01  6.16462078E-01  2.21006028E-01
  1.14660081E-01  9.19999648E-01 -3.03068213E-03  1.00000000E+00  1.00000000E+00
  1.00000000E+00  1.00000000E+00  1.96665025E-03  1.52306019E-02  7.61269097E-02
  2.60801033E-01  6.16462078E-01  2.21006028E-01  1.14660081E-01  9.19999648E-01
 -3.03068213E-03  1.00000000E+00  1.00000000E+00  1.00000000E+00  1.00000000E+00
  1.96665025E-03  1.52306019E-02  7.61269097E-02  2.60801033E-01  6.16462078E-01
  2.21006028E-01  1.14660081E-01  9.19999648E-01 -3.03068213E-03  1.00000000E+00
  1.00000000E+00  1.00000000E+00  1.00000000E+00  7.38000247E-04  5.71800191E-03
  2.94950099E-02  1.17286039E-01  3.62949121E-01  5.84149195E-01  1.34176973E-01
  6.24249876E-01  2.91755942E-01  1.00000000E+00  1.00000000E+00  1.00000000E+00
  1.00000000E+00  1.00000000E+00  3.66556935E-03  2.83679194E-02  1.24756603E-01
  3.39654631E-01  7.47585963E-01 -1.57224381E+00  9.92388882E-01  1.00000000E+00
  1.00000000E+00  1.00000000E+00  1.00000000E+00  2.54938145E-02  1.90373109E-01
  8.52161486E-01  1.00000000E+00  1.00000000E+00  1.00000000E+00  1.00000000E+00
  2.54938145E-02  1.90373109E-01  8.52161486E-01  1.00000000E+00  1.00000000E+00
  1.00000000E+00  1.00000000E+00  2.54938145E-02  1.90373109E-01  8.52161486E-01
  1.00000000E+00  1.00000000E+00  1.00000000E+00  1.00000000E+00  2.54938145E-02
  1.90373109E-01  8.52161486E-01  1.00000000E+00  1.00000000E+00  1.00000000E+00
  1.00000000E+00  2.54938145E-02  1.90373109E-01  8.52161486E-01  1.00000000E+00
  1.00000000E+00  1.00000000E+00  1.00000000E+00
P(S=P) Contraction coefficients            R   N=         138
  0.00000000E+00  0.00000000E+00  0.00000000E+00  0.00000000E+00  0.00000000E+00
  0.00000000E+00  4.02486927E-02  2.37593957E-01  8.15853851E-01  1.00000000E+00
  1.00000000E+00  1.00000000E+00  0.00000000E+00  0.00000000E+00  0.00000000E+00
  0.00000000E+00  0.00000000E+00  0.00000000E+00  0.00000000E+00  4.02486927E-02
  2.37593957E-01  8.15853851E-01  1.00000000E+00  1.00000000E+00  1.00000000E+00
  0.00000000E+00  0.00000000E+00  0.00000000E+00  0.00000000E+00  0.00000000E+00
  0.00000000E+00  0.00000000E+00  4.02486927E-02  2.37593957E-01  8.15853851E-01
  1.00000000E+00  1.00000000E+00  1.00000000E+00  0.00000000E+00  0.00000000E+00
  0.00000000E+00  0.00000000E+00  0.00000000E+00  0.00000000E+00  0.00000000E+00
  4.02486927E-02  2.37593957E-01  8.15853851E-01  1.00000000E+00  1.00000000E+00
  1.00000000E+00  0.00000000E+00  0.00000000E+00  0.00000000E+00  0.00000000E+00
  0.00000000E+00  0.00000000E+00  0.00000000E+00  4.02486927E-02  2.37593957E-01
  8.15853851E-01  1.00000000E+00  1.00000000E+00  1.00000000E+00  0.00000000E+00
  0.00000000E+00  0.00000000E+00  0.00000000E+00  0.00000000E+00  0.00000000E+00
  0.00000000E+00  4.02486927E-02  2.37593957E-01  8.15853851E-01  1.00000000E+00
  1.00000000E+00  1.00000000E+00  0.00000000E+00  0.00000000E+00  0.00000000E+00
  0.00000000E+00  0.00000000E+00  0.00000000E+00  0.00000000E+00  0.00000000E+00
  0.00000000E+00  0.00000000E+00  0.00000000E+00  0.00000000E+00  0.00000000E+00
  0.00000000E+00  1.00000000E+00  0.00000000E+00  0.00000000E+00  0.00000000E+00
  0.00000000E+00  0.00000000E+00  0.00000000E+00  0.00000000E+00  0.00000000E+00
  0.00000000E+00  0.00000000E+00  0.00000000E+00  0.00000000E+00  0.00000000E+00
  0.00000000E+00  0.00000000E+00  0.00000000E+00  0.00000000E+00  0.00000000E+00
  0.00000000E+00  0.00000000E+00  0.00000000E+00  0.00000000E+00  0.00000000E+00
  0.00000000E+00  0.00000000E+00  0.00000000E+00  0.00000000E+00  0.00000000E+00
  0.00000000E+00  0.00000000E+00  0.00000000E+00  0.00000000E+00  0.00000000E+00
  0.00000000E+00  0.00000000E+00  0.00000000E+00  0.00000000E+00  0.00000000E+00
  0.00000000E+00  0.00000000E+00  0.00000000E+00  0.00000000E+00  0.00000000E+00
  0.00000000E+00  0.00000000E+00  0.00000000E+00
Coordinates of each shell                  R   N=         222
 -2.29326478E+00 -3.33444627E-01  1.23259516E-32 -2.29326478E+00 -3.33444627E-01
  1.23259516E-32 -2.29326478E+00 -3.33444627E-01  1.23259516E-32 -2.29326478E+00
 -3.33444627E-01  1.23259516E-32 -2.29326478E+00 -3.33444627E-01  1.23259516E-32
 -2.29326478E+00 -3.33444627E-01  1.23259516E-32 -2.27326302E+00 -2.96133711E+00
  0.00000000E+00 -2.27326302E+00 -2.96133711E+00  0.00000000E+00 -2.27326302E+00
 -2.96133711E+00  0.00000000E+00 -2.27326302E+00 -2.96133711E+00  0.00000000E+00
 -2.27326302E+00 -2.96133711E+00  0.00000000E+00 -2.27326302E+00 -2.96133711E+00
  0.00000000E+00  1.08031642E-07 -4.27592144E+00 -9.86076132E-32  1.08031642E-07
 -4.27592144E+00 -9.86076132E-32  1.08031642E-07 -4.27592144E+00 -9.86076132E-32
  1.08031642E-07 -4.27592144E+00 -9.86076132E-32  1.08031642E-07 -4.27592144E+00
 -9.86076132E-32  1.08031642E-07 -4.27592144E+00 -9.86076132E-32  2.27326312E+00
 -2.96133705E+00 -9.86076132E-32  2.27326312E+00 -2.96133705E+00 -9.86076132E-32
  2.27326312E+00 -2.96133705E+00 -9.86076132E-32  2.27326312E+00 -2.96133705E+00
 -9.86076132E-32  2.27326312E+00 -2.96133705E+00 -9.86076132E-32  2.27326312E+00
 -2.96133705E+00 -9.86076132E-32  2.29326495E+00 -3.33444666E-01 -3.69778549E-32
  2.29326495E+00 -3.33444666E-01 -3.69778549E-32  2.29326495E+00 -3.33444666E-01
 -3.69778549E-32  2.29326495E+00 -3.33444666E-01 -3.69778549E-32  2.29326495E+00
 -3.33444666E-01 -3.69778549E-32  2.29326495E+00 -3.33444666E-01 -3.69778549E-32
  1.08031641E-07  9.36504065E-01  2.46519033E-32  1.08031641E-07  9.36504065E-01
  2.46519033E-32  1.08031641E-07  9.36504065E-01  2.46519033E-32  1.08031641E-07
  9.36504065E-01  2.46519033E-32  1.08031641E-07  9.36504065E-01  2.46519033E-32
  1.08031641E-07  9.36504065E-01  2.46519033E-32  8.28177360E-08  4.26159067E+00
  9.86076132E-32  8.28177360E-08  4.26159067E+00  9.86076132E-32  8.28177360E-08
  4.26159067E+00  9.86076132E-32  8.28177360E-08  4.26159067E+00  9.86076132E-32
  8.28177360E-08  4.26159067E+00  9.86076132E-32  8.28177360E-08  4.26159067E+00
  9.86076132E-32  8.28177360E-08  4.26159067E+00  9.86076132E-32  8.28177360E-08
  4.26159067E+00  9.86076132E-32  8.28177360E-08  4.26159067E+00  9.86076132E-32
  8.28177360E-08  4.26159067E+00  9.86076132E-32  8.28177360E-08  4.26159067E+00
  9.86076132E-32  8.28177360E-08  4.26159067E+00  9.86076132E-32  8.28177360E-08
  4.26159067E+00  9.86076132E-32 -4.05289602E+00  7.11138083E-01  7.39557099E-32
 -4.05289602E+00  7.11138083E-01  7.39557099E-32 -4.05289602E+00  7.11138083E-01
  7.39557099E-32 -4.05289602E+00  7.11138083E-01  7.39557099E-32 -4.05289602E+00
  7.11138083E-01  7.39557099E-32 -4.04923078E+00 -3.98485569E+00 -9.86076132E-32
 -4.04923078E+00 -3.98485569E+00 -9.86076132E-32 -4.04923078E+00 -3.98485569E+00
 -9.86076132E-32 -4.04923078E+00 -3.98485569E+00 -9.86076132E-32 -4.04923078E+00
 -3.98485569E+00 -9.86076132E-32  1.90324398E-07 -6.32572133E+00 -2.95822839E-31
  1.90324398E-07 -6.32572133E+00 -2.95822839E-31  1.90324398E-07 -6.32572133E+00
 -2.95822839E-31  1.90324398E-07 -6.32572133E+00 -2.95822839E-31  1.90324398E-07
 -6.32572133E+00 -2.95822839E-31  4.04922836E+00 -3.98485422E+00 -2.95822839E-31
  4.04922836E+00 -3.98485422E+00 -2.95822839E-31  4.04922836E+00 -3.98485422E+00
 -2.95822839E-31  4.04922836E+00 -3.98485422E+00 -2.95822839E-31  4.04922836E+00
 -3.98485422E+00 -2.95822839E-31  4.05289391E+00  7.11136688E-01 -4.93038066E-32
  4.05289391E+00  7.11136688E-01 -4.93038066E-32  4.05289391E+00  7.11136688E-01
 -4.93038066E-32  4.05289391E+00  7.11136688E-01 -4.93038066E-32  4.05289391E+00
  7.11136688E-01 -4.93038066E-32
Num ILSW                                   I              100
ILSW                                       I   N=         100
           1           0           0           0           2           0
           0           0           0           0        4336          -1
           5           0           0           0           2           0
           0           0           1           0           1           0
           1           0           0           0           0           0
           0           0      100000           0          -1           0
           0           0           0           0           0           0
           0           0           0           1           0           0
           0 -2000000000           1           0           0           0
           0           0           4          52           0           0
           0           0          55           0           0           0
           0           0           0           0           0           1
           0           0           0           0           0           0
           0           0           0           0           0           0
           0           0           0           0           0           0
           0           0           0           0           0           0
           0           0           0           0
Num RLSW                                   I               52
RLSW                                       R   N=          52
  1.00000000E+00  1.00000000E+00  1.00000000E+00  1.00000000E+00  5.40000000E-01
  0.00000000E+00  0.00000000E+00  1.00000000E+00  0.00000000E+00  0.00000000E+00
  0.00000000E+00  0.00000000E+00  1.00000000E+00  0.00000000E+00  0.00000000E+00
  0.00000000E+00  0.00000000E+00  1.00000000E+00  0.00000000E+00  0.00000000E+00
  0.00000000E+00  0.00000000E+00  1.00000000E+00  0.00000000E+00  0.00000000E+00
  0.00000000E+00  0.00000000E+00  1.00000000E+00  0.00000000E+00  0.00000000E+00
  0.00000000E+00  0.00000000E+00  1.00000000E+00  0.00000000E+00  0.00000000E+00
  0.00000000E+00  0.00000000E+00  0.00000000E+00  1.00000000E+00  1.00000000E+00
  0.00000000E+00  1.00000000E+00  0.00000000E+00  0.00000000E+00  0.00000000E+00
  0.00000000E+00  0.00000000E+00  0.00000000E+00  0.00000000E+00  0.00000000E+00
  0.00000000E+00  0.00000000E+00
MxBond                                     I                3
NBond                                      I   N=          12
           3           3           3           3           3           3
           1           1           1           1           1           1
IBond                                      I   N=          36
           2           6           8           1           3           9