Neutral Radical (removed 1) _245                                        
Freq      UM062X                                                      6-311++G(d,p)       
Number of atoms                            I               11
Info1-9                                    I   N=           9
           8           6        1002           0           0         100
           6          18       -5502
Full Title                                 C   N=           3
Neutral Radical (removed 1) _245    
Route                                      C   N=           5
# opt freq 6-311++g(d,p) guess=read geom=allcheck m062x     
Charge                                     I                0
Multiplicity                               I                2
Number of electrons                        I               89
Number of alpha electrons                  I               45
Number of beta electrons                   I               44
Number of basis functions                  I              236
Number of independent functions            I              236
Number of point charges in /Mol/           I                0
Number of translation vectors              I                0
Atomic numbers                             I   N=          11
           6           6           6           6           6           6
          17           1          17          17           1
Nuclear charges                            R   N=          11
  6.00000000E+00  6.00000000E+00  6.00000000E+00  6.00000000E+00  6.00000000E+00
  6.00000000E+00  1.70000000E+01  1.00000000E+00  1.70000000E+01  1.70000000E+01
  1.00000000E+00
Current cartesian coordinates              R   N=          33
 -2.27951509E+00  2.42584596E+00  6.90253292E-31 -2.28630722E+00 -2.01685918E-01
  4.93038066E-31  2.58738255E-32 -1.50352933E+00 -7.39557099E-32  2.29621011E+00
 -2.00424812E-01 -3.94430453E-31  2.30459237E+00  2.44031531E+00 -1.97215226E-31
  1.13084041E-02  3.63308749E+00  9.86076132E-32 -5.09357237E+00  4.10641842E+00
  1.38050658E-30 -4.05118108E+00 -1.23646405E+00  6.90253292E-31 -7.60591322E-02
 -4.77456595E+00 -9.86076132E-32  5.15167600E+00 -1.78983229E+00 -5.91645679E-31
  4.07869319E+00  3.46046889E+00 -5.91645679E-31
Number of symbols in /Mol/                 I                0
Force Field                                I                0
Atom Types                                 C   N=          11
                                                            
                                                            
            
Int Atom Types                             I   N=          11
           0           0           0           0           0           0
           0           0           0           0           0
MM charges                                 R   N=          11
  0.00000000E+00  0.00000000E+00  0.00000000E+00  0.00000000E+00  0.00000000E+00
  0.00000000E+00  0.00000000E+00  0.00000000E+00  0.00000000E+00  0.00000000E+00
  0.00000000E+00
Integer atomic weights                     I   N=          11
          12          12          12          12          12          12
          35           1          35          35           1
Real atomic weights                        R   N=          11
  1.20000000E+01  1.20000000E+01  1.20000000E+01  1.20000000E+01  1.20000000E+01
  1.20000000E+01  3.49688527E+01  1.00782504E+00  3.49688527E+01  3.49688527E+01
  1.00782504E+00
Atom fragment info                         I   N=          11
           0           0           0           0           0           0
           0           0           0           0           0
Atom residue num                           I   N=          11
           0           0           0           0           0           0
           0           0           0           0           0
Nuclear spins                              I   N=          11
           0           0           0           0           0           0
           3           1           3           3           1
Nuclear ZEff                               R   N=          11
 -3.60000000E+00 -3.60000000E+00 -3.60000000E+00 -3.60000000E+00 -3.60000000E+00
 -3.60000000E+00 -1.42400000E+01 -1.00000000E+00 -1.42400000E+01 -1.42400000E+01
 -1.00000000E+00
Nuclear ZNuc                               R   N=          11
  6.00000000E+00  6.00000000E+00  6.00000000E+00  6.00000000E+00  6.00000000E+00
  6.00000000E+00  1.70000000E+01  1.00000000E+00  1.70000000E+01  1.70000000E+01
  1.00000000E+00
Nuclear QMom                               R   N=          11
  0.00000000E+00  0.00000000E+00  0.00000000E+00  0.00000000E+00  0.00000000E+00
  0.00000000E+00 -8.16500000E+00  0.00000000E+00 -8.16500000E+00 -8.16500000E+00
  0.00000000E+00
Nuclear GFac                               R   N=          11
  0.00000000E+00  0.00000000E+00  0.00000000E+00  0.00000000E+00  0.00000000E+00
  0.00000000E+00  8.21874000E-01  2.79284600E+00  8.21874000E-01  8.21874000E-01
  2.79284600E+00
MicOpt                                     I   N=          11
          -1          -1          -1          -1          -1          -1
          -1          -1          -1          -1          -1
Number of residues                         I                0
Number of secondary structures             I                0
Redundant internal dimensions              I   N=           4
          47          11          16          20
Redundant internal coordinate indices      I   N=         188
           1           2           0           0           1           6
           0           0           1           7           0           0
           2           3           0           0           2           8
           0           0           3           4           0           0
           3           9           0           0           4           5
           0           0           4          10           0           0
           5           6           0           0           5          11
           0           0           2           1           6           0
           2           1           7           0           6           1
           7           0           1           2           3           0
           1           2           8           0           3           2
           8           0           2           3           4           0
           2           3           9           0           4           3
           9           0           3           4           5           0
           3           4          10           0           5           4
          10           0           4           5           6           0
           4           5          11           0           6           5
          11           0           1           6           5           0
           6           1           2           3           6           1
           2           8           7           1           2           3
           7           1           2           8           2           1
           6           5           7           1           6           5
           1           2           3           4           1           2
           3           9           8           2           3           4
           8           2           3           9           2           3
           4           5           2           3           4          10
           9           3           4           5           9           3
           4          10           3           4           5           6
           3           4           5          11          10           4
           5           6          10           4           5          11
           4           5           6           1          11           5
           6           1
Redundant internal coordinates             R   N=          47
  2.62754065E+00  2.58946025E+00  3.27768854E+00  2.63096883E+00  2.04586058E+00
  2.64020118E+00  3.27192077E+00  2.64075343E+00  3.26801187E+00  2.58492878E+00
  2.04649629E+00  2.05838721E+00  2.10657405E+00  2.11822405E+00  2.08583353E+00
  2.10368011E+00  2.09367167E+00  2.10778917E+00  2.06517039E+00  2.11022574E+00
  2.09015183E+00  2.11750033E+00  2.07553315E+00  2.04723221E+00  2.09582412E+00
  2.14012898E+00  2.17697667E+00  0.00000000E+00  3.14159265E+00  3.14159265E+00
  0.00000000E+00 -0.00000000E+00  3.14159265E+00 -0.00000000E+00  3.14159265E+00
  3.14159265E+00 -0.00000000E+00  0.00000000E+00  3.14159265E+00  3.14159265E+00
 -0.00000000E+00 -0.00000000E+00  3.14159265E+00  3.14159265E+00  0.00000000E+00
  0.00000000E+00  3.14159265E+00
ZRed-IntVec                                I   N=          47
           0           0           0           0           0           0
           0           0           0           0           0           0
           0           0           0           0           0           0
           0           0           0           0           0           0
           0           0           0           0           0           0
           0           0           0           0           0           0
           0           0           0           0           0           0
           0           0           0           0           0
ZRed-FPVec                                 R   N=          47
  0.00000000E+00  0.00000000E+00  0.00000000E+00  0.00000000E+00  0.00000000E+00
  0.00000000E+00  0.00000000E+00  0.00000000E+00  0.00000000E+00  0.00000000E+00
  0.00000000E+00  0.00000000E+00  0.00000000E+00  0.00000000E+00  0.00000000E+00
  0.00000000E+00  0.00000000E+00  0.00000000E+00  0.00000000E+00  0.00000000E+00
  0.00000000E+00  0.00000000E+00  0.00000000E+00  0.00000000E+00  0.00000000E+00
  0.00000000E+00  0.00000000E+00  0.00000000E+00  0.00000000E+00  0.00000000E+00
  0.00000000E+00  0.00000000E+00  0.00000000E+00  0.00000000E+00  0.00000000E+00
  0.00000000E+00  0.00000000E+00  0.00000000E+00  0.00000000E+00  0.00000000E+00
  0.00000000E+00  0.00000000E+00  0.00000000E+00  0.00000000E+00  0.00000000E+00
  0.00000000E+00  0.00000000E+00
ZRed-Constraint1                           R   N=          47
  2.62754065E+00  2.58946025E+00  3.27768854E+00  2.63096883E+00  2.04586058E+00
  2.64020118E+00  3.27192077E+00  2.64075343E+00  3.26801187E+00  2.58492878E+00
  2.04649629E+00  2.05838721E+00  2.10657405E+00  2.11822405E+00  2.08583353E+00
  2.10368011E+00  2.09367167E+00  2.10778917E+00  2.06517039E+00  2.11022574E+00
  2.09015183E+00  2.11750033E+00  2.07553315E+00  2.04723221E+00  2.09582412E+00
  2.14012898E+00  2.17697667E+00 -0.00000000E+00  3.14159265E+00  3.14159265E+00
  0.00000000E+00  0.00000000E+00  3.14159265E+00  0.00000000E+00  3.14159265E+00
  3.14159265E+00  0.00000000E+00 -0.00000000E+00  3.14159265E+00  3.14159265E+00
 -0.00000000E+00  0.00000000E+00  3.14159265E+00  3.14159265E+00 -0.00000000E+00
 -0.00000000E+00  3.14159265E+00
ZRed-Constraint2                           R   N=          47
  2.66768407E+00  2.60163609E+00  3.17648874E+00  2.65918455E+00  2.07941884E+00
  2.67417095E+00  3.20031166E+00  2.67329245E+00  3.18894606E+00  2.58348380E+00
  2.07520378E+00  2.01166075E+00  2.12686724E+00  2.14465732E+00  2.08581354E+00
  2.09767303E+00  2.09969874E+00  2.12202043E+00  2.06115794E+00  2.10000694E+00
  2.08468309E+00  2.11915540E+00  2.07934682E+00  2.01060247E+00  2.13105841E+00
  2.14152443E+00  2.25159034E+00 -0.00000000E+00  3.14159265E+00  3.14159265E+00
 -0.00000000E+00 -0.00000000E+00  3.14159265E+00  0.00000000E+00  3.14159265E+00
  3.14159265E+00 -0.00000000E+00 -0.00000000E+00  3.14159265E+00  3.14159265E+00
  0.00000000E+00  0.00000000E+00  3.14159265E+00  3.14159265E+00 -0.00000000E+00
  0.00000000E+00  3.14159265E+00
SymInf integers                            I   N=          26
           1           2           1           1           1           1
           1          -1           0           0           0           0
           0           0           0           0           0           0
           0           0           0           0           0           0
           0           0
RotTr to input orientation                 R   N=          12
  5.22296943E-01 -8.52763686E-01  2.15225101E-16 -8.52763686E-01 -5.22296943E-01
 -7.99568761E-17  1.80595733E-16 -1.41774919E-16 -1.00000000E+00 -2.77367762E+00
 -2.96266963E-01 -2.55380955E-18
Number of contracted shells                I               85
Number of primitive shells                 I              167
Pure/Cartesian d shells                    I                0
Pure/Cartesian f shells                    I                0
Highest angular momentum                   I                2
Largest degree of contraction              I                6
Shell types                                I   N=          85
           0          -1          -1          -1          -1          -2
           0          -1          -1          -1          -1          -2
           0          -1          -1          -1          -1          -2
           0          -1          -1          -1          -1          -2
           0          -1          -1          -1          -1          -2
           0          -1          -1          -1          -1          -2
           0           0           0           0           0           0
          -1           1           1           1           1           1
          -2           0           0           0           0           1
           0           0           0           0           0           0
          -1           1           1           1           1           1
          -2           0           0           0           0           0
           0          -1           1           1           1           1
           1          -2           0           0           0           0
           1
Number of primitives per shell             I   N=          85
           6           3           1           1           1           1
           6           3           1           1           1           1
           6           3           1           1           1           1
           6           3           1           1           1           1
           6           3           1           1           1           1
           6           3           1           1           1           1
           6           3           1           1           1           1
           1           5           2           1           1           1
           1           3           1           1           1           1
           6           3           1           1           1           1
           1           5           2           1           1           1
           1           6           3           1           1           1
           1           1           5           2           1           1
           1           1           3           1           1           1
           1
Shell to atom map                          I   N=          85
           1           1           1           1           1           1
           2           2           2           2           2           2
           3           3           3           3           3           3
           4           4           4           4           4           4
           5           5           5           5           5           5
           6           6           6           6           6           6
           7           7           7           7           7           7
           7           7           7           7           7           7
           7           8           8           8           8           8
           9           9           9           9           9           9
           9           9           9           9           9           9
           9          10          10          10          10          10
          10          10          10          10          10          10
          10          10          11          11          11          11
          11
Primitive exponents                        R   N=         167
  4.56324000E+03  6.82024000E+02  1.54973000E+02  4.44553000E+01  1.30290000E+01
  1.82773000E+00  2.09642000E+01  4.80331000E+00  1.45933000E+00  4.83456000E-01
  1.45585000E-01  4.38000000E-02  6.26000000E-01  4.56324000E+03  6.82024000E+02
  1.54973000E+02  4.44553000E+01  1.30290000E+01  1.82773000E+00  2.09642000E+01
  4.80331000E+00  1.45933000E+00  4.83456000E-01  1.45585000E-01  4.38000000E-02
  6.26000000E-01  4.56324000E+03  6.82024000E+02  1.54973000E+02  4.44553000E+01
  1.30290000E+01  1.82773000E+00  2.09642000E+01  4.80331000E+00  1.45933000E+00
  4.83456000E-01  1.45585000E-01  4.38000000E-02  6.26000000E-01  4.56324000E+03
  6.82024000E+02  1.54973000E+02  4.44553000E+01  1.30290000E+01  1.82773000E+00
  2.09642000E+01  4.80331000E+00  1.45933000E+00  4.83456000E-01  1.45585000E-01
  4.38000000E-02  6.26000000E-01  4.56324000E+03  6.82024000E+02  1.54973000E+02
  4.44553000E+01  1.30290000E+01  1.82773000E+00  2.09642000E+01  4.80331000E+00
  1.45933000E+00  4.83456000E-01  1.45585000E-01  4.38000000E-02  6.26000000E-01
  4.56324000E+03  6.82024000E+02  1.54973000E+02  4.44553000E+01  1.30290000E+01
  1.82773000E+00  2.09642000E+01  4.80331000E+00  1.45933000E+00  4.83456000E-01
  1.45585000E-01  4.38000000E-02  6.26000000E-01  1.05819000E+05  1.58720000E+04
  3.61965000E+03  1.03080000E+03  3.39908000E+02  1.24538000E+02  1.24538000E+02
  4.95135000E+01  2.08056000E+01  6.58346000E+00  2.56468000E+00  5.59763000E-01
  1.83273000E-01  4.83000000E-02  5.89776000E+02  1.39849000E+02  4.51413000E+01
  1.68733000E+01  2.77152000E+00  6.74110000E+00  2.77152000E+00  1.02387000E+00
  3.81368000E-01  1.09437000E-01  7.50000000E-01  3.38650000E+01  5.09479000E+00
  1.15879000E+00  3.25840000E-01  1.02741000E-01  3.60000000E-02  7.50000000E-01
  1.05819000E+05  1.58720000E+04  3.61965000E+03  1.03080000E+03  3.39908000E+02
  1.24538000E+02  1.24538000E+02  4.95135000E+01  2.08056000E+01  6.58346000E+00
  2.56468000E+00  5.59763000E-01  1.83273000E-01  4.83000000E-02  5.89776000E+02
  1.39849000E+02  4.51413000E+01  1.68733000E+01  2.77152000E+00  6.74110000E+00
  2.77152000E+00  1.02387000E+00  3.81368000E-01  1.09437000E-01  7.50000000E-01
  1.05819000E+05  1.58720000E+04  3.61965000E+03  1.03080000E+03  3.39908000E+02
  1.24538000E+02  1.24538000E+02  4.95135000E+01  2.08056000E+01  6.58346000E+00
  2.56468000E+00  5.59763000E-01  1.83273000E-01  4.83000000E-02  5.89776000E+02
  1.39849000E+02  4.51413000E+01  1.68733000E+01  2.77152000E+00  6.74110000E+00
  2.77152000E+00  1.02387000E+00  3.81368000E-01  1.09437000E-01  7.50000000E-01
  3.38650000E+01  5.09479000E+00  1.15879000E+00  3.25840000E-01  1.02741000E-01
  3.60000000E-02  7.50000000E-01
Contraction coefficients                   R   N=         167
  1.96665025E-03  1.52306019E-02  7.61269097E-02  2.60801033E-01  6.16462078E-01
  2.21006028E-01  1.14660081E-01  9.19999648E-01 -3.03068213E-03  1.00000000E+00
  1.00000000E+00  1.00000000E+00  1.00000000E+00  1.96665025E-03  1.52306019E-02
  7.61269097E-02  2.60801033E-01  6.16462078E-01  2.21006028E-01  1.14660081E-01
  9.19999648E-01 -3.03068213E-03  1.00000000E+00  1.00000000E+00  1.00000000E+00
  1.00000000E+00  1.96665025E-03  1.52306019E-02  7.61269097E-02  2.60801033E-01
  6.16462078E-01  2.21006028E-01  1.14660081E-01  9.19999648E-01 -3.03068213E-03
  1.00000000E+00  1.00000000E+00  1.00000000E+00  1.00000000E+00  1.96665025E-03
  1.52306019E-02  7.61269097E-02  2.60801033E-01  6.16462078E-01  2.21006028E-01
  1.14660081E-01  9.19999648E-01 -3.03068213E-03  1.00000000E+00  1.00000000E+00
  1.00000000E+00  1.00000000E+00  1.96665025E-03  1.52306019E-02  7.61269097E-02
  2.60801033E-01  6.16462078E-01  2.21006028E-01  1.14660081E-01  9.19999648E-01
 -3.03068213E-03  1.00000000E+00  1.00000000E+00  1.00000000E+00  1.00000000E+00
  1.96665025E-03  1.52306019E-02  7.61269097E-02  2.60801033E-01  6.16462078E-01
  2.21006028E-01  1.14660081E-01  9.19999648E-01 -3.03068213E-03  1.00000000E+00
  1.00000000E+00  1.00000000E+00  1.00000000E+00  7.38000247E-04  5.71800191E-03
  2.94950099E-02  1.17286039E-01  3.62949121E-01  5.84149195E-01  1.34176973E-01
  6.24249876E-01  2.91755942E-01  1.00000000E+00  1.00000000E+00  1.00000000E+00
  1.00000000E+00  1.00000000E+00  3.66556935E-03  2.83679194E-02  1.24756603E-01
  3.39654631E-01  7.47585963E-01 -1.57224381E+00  9.92388882E-01  1.00000000E+00
  1.00000000E+00  1.00000000E+00  1.00000000E+00  2.54938145E-02  1.90373109E-01
  8.52161486E-01  1.00000000E+00  1.00000000E+00  1.00000000E+00  1.00000000E+00
  7.38000247E-04  5.71800191E-03  2.94950099E-02  1.17286039E-01  3.62949121E-01
  5.84149195E-01  1.34176973E-01  6.24249876E-01  2.91755942E-01  1.00000000E+00
  1.00000000E+00  1.00000000E+00  1.00000000E+00  1.00000000E+00  3.66556935E-03
  2.83679194E-02  1.24756603E-01  3.39654631E-01  7.47585963E-01 -1.57224381E+00
  9.92388882E-01  1.00000000E+00  1.00000000E+00  1.00000000E+00  1.00000000E+00
  7.38000247E-04  5.71800191E-03  2.94950099E-02  1.17286039E-01  3.62949121E-01
  5.84149195E-01  1.34176973E-01  6.24249876E-01  2.91755942E-01  1.00000000E+00
  1.00000000E+00  1.00000000E+00  1.00000000E+00  1.00000000E+00  3.66556935E-03
  2.83679194E-02  1.24756603E-01  3.39654631E-01  7.47585963E-01 -1.57224381E+00
  9.92388882E-01  1.00000000E+00  1.00000000E+00  1.00000000E+00  1.00000000E+00
  2.54938145E-02  1.90373109E-01  8.52161486E-01  1.00000000E+00  1.00000000E+00
  1.00000000E+00  1.00000000E+00
P(S=P) Contraction coefficients            R   N=         167
  0.00000000E+00  0.00000000E+00  0.00000000E+00  0.00000000E+00  0.00000000E+00
  0.00000000E+00  4.02486927E-02  2.37593957E-01  8.15853851E-01  1.00000000E+00
  1.00000000E+00  1.00000000E+00  0.00000000E+00  0.00000000E+00  0.00000000E+00
  0.00000000E+00  0.00000000E+00  0.00000000E+00  0.00000000E+00  4.02486927E-02
  2.37593957E-01  8.15853851E-01  1.00000000E+00  1.00000000E+00  1.00000000E+00
  0.00000000E+00  0.00000000E+00  0.00000000E+00  0.00000000E+00  0.00000000E+00
  0.00000000E+00  0.00000000E+00  4.02486927E-02  2.37593957E-01  8.15853851E-01
  1.00000000E+00  1.00000000E+00  1.00000000E+00  0.00000000E+00  0.00000000E+00
  0.00000000E+00  0.00000000E+00  0.00000000E+00  0.00000000E+00  0.00000000E+00
  4.02486927E-02  2.37593957E-01  8.15853851E-01  1.00000000E+00  1.00000000E+00
  1.00000000E+00  0.00000000E+00  0.00000000E+00  0.00000000E+00  0.00000000E+00
  0.00000000E+00  0.00000000E+00  0.00000000E+00  4.02486927E-02  2.37593957E-01
  8.15853851E-01  1.00000000E+00  1.00000000E+00  1.00000000E+00  0.00000000E+00
  0.00000000E+00  0.00000000E+00  0.00000000E+00  0.00000000E+00  0.00000000E+00
  0.00000000E+00  4.02486927E-02  2.37593957E-01  8.15853851E-01  1.00000000E+00
  1.00000000E+00  1.00000000E+00  0.00000000E+00  0.00000000E+00  0.00000000E+00
  0.00000000E+00  0.00000000E+00  0.00000000E+00  0.00000000E+00  0.00000000E+00
  0.00000000E+00  0.00000000E+00  0.00000000E+00  0.00000000E+00  0.00000000E+00
  0.00000000E+00  1.00000000E+00  0.00000000E+00  0.00000000E+00  0.00000000E+00
  0.00000000E+00  0.00000000E+00  0.00000000E+00  0.00000000E+00  0.00000000E+00
  0.00000000E+00  0.00000000E+00  0.00000000E+00  0.00000000E+00  0.00000000E+00
  0.00000000E+00  0.00000000E+00  0.00000000E+00  0.00000000E+00  0.00000000E+00
  0.00000000E+00  0.00000000E+00  0.00000000E+00  0.00000000E+00  0.00000000E+00
  0.00000000E+00  0.00000000E+00  0.00000000E+00  0.00000000E+00  0.00000000E+00
  0.00000000E+00  0.00000000E+00  0.00000000E+00  1.00000000E+00  0.00000000E+00
  0.00000000E+00  0.00000000E+00  0.00000000E+00  0.00000000E+00  0.00000000E+00
  0.00000000E+00  0.00000000E+00  0.00000000E+00  0.00000000E+00  0.00000000E+00
  0.00000000E+00  0.00000000E+00  0.00000000E+00  0.00000000E+00  0.00000000E+00
  0.00000000E+00  0.00000000E+00  0.00000000E+00  0.00000000E+00  0.00000000E+00
  0.00000000E+00  0.00000000E+00  0.00000000E+00  1.00000000E+00  0.00000000E+00
  0.00000000E+00  0.00000000E+00  0.00000000E+00  0.00000000E+00  0.00000000E+00
  0.00000000E+00  0.00000000E+00  0.00000000E+00  0.00000000E+00  0.00000000E+00
  0.00000000E+00  0.00000000E+00  0.00000000E+00  0.00000000E+00  0.00000000E+00
  0.00000000E+00  0.00000000E+00
Coordinates of each shell                  R   N=         255
 -2.27951509E+00  2.42584596E+00  3.94430453E-31 -2.27951509E+00  2.42584596E+00
  3.94430453E-31 -2.27951509E+00  2.42584596E+00  3.94430453E-31 -2.27951509E+00
  2.42584596E+00  3.94430453E-31 -2.27951509E+00  2.42584596E+00  3.94430453E-31
 -2.27951509E+00  2.42584596E+00  3.94430453E-31 -2.28630722E+00 -2.01685918E-01
  3.94430453E-31 -2.28630722E+00 -2.01685918E-01  3.94430453E-31 -2.28630722E+00
 -2.01685918E-01  3.94430453E-31 -2.28630722E+00 -2.01685918E-01  3.94430453E-31
 -2.28630722E+00 -2.01685918E-01  3.94430453E-31 -2.28630722E+00 -2.01685918E-01
  3.94430453E-31  2.58738255E-32 -1.50352933E+00 -2.46519033E-32  2.58738255E-32
 -1.50352933E+00 -2.46519033E-32  2.58738255E-32 -1.50352933E+00 -2.46519033E-32
  2.58738255E-32 -1.50352933E+00 -2.46519033E-32  2.58738255E-32 -1.50352933E+00
 -2.46519033E-32  2.58738255E-32 -1.50352933E+00 -2.46519033E-32  2.29621011E+00
 -2.00424812E-01 -3.94430453E-31  2.29621011E+00 -2.00424812E-01 -3.94430453E-31
  2.29621011E+00 -2.00424812E-01 -3.94430453E-31  2.29621011E+00 -2.00424812E-01
 -3.94430453E-31  2.29621011E+00 -2.00424812E-01 -3.94430453E-31  2.29621011E+00
 -2.00424812E-01 -3.94430453E-31  2.30459237E+00  2.44031531E+00 -1.47911420E-31
  2.30459237E+00  2.44031531E+00 -1.47911420E-31  2.30459237E+00  2.44031531E+00
 -1.47911420E-31  2.30459237E+00  2.44031531E+00 -1.47911420E-31  2.30459237E+00
  2.44031531E+00 -1.47911420E-31  2.30459237E+00  2.44031531E+00 -1.47911420E-31
  1.13084041E-02  3.63308749E+00 -4.93038066E-32  1.13084041E-02  3.63308749E+00
 -4.93038066E-32  1.13084041E-02  3.63308749E+00 -4.93038066E-32  1.13084041E-02
  3.63308749E+00 -4.93038066E-32  1.13084041E-02  3.63308749E+00 -4.93038066E-32
  1.13084041E-02  3.63308749E+00 -4.93038066E-32 -5.09357237E+00  4.10641842E+00
  7.88860905E-31 -5.09357237E+00  4.10641842E+00  7.88860905E-31 -5.09357237E+00
  4.10641842E+00  7.88860905E-31 -5.09357237E+00  4.10641842E+00  7.88860905E-31
 -5.09357237E+00  4.10641842E+00  7.88860905E-31 -5.09357237E+00  4.10641842E+00
  7.88860905E-31 -5.09357237E+00  4.10641842E+00  7.88860905E-31 -5.09357237E+00
  4.10641842E+00  7.88860905E-31 -5.09357237E+00  4.10641842E+00  7.88860905E-31
 -5.09357237E+00  4.10641842E+00  7.88860905E-31 -5.09357237E+00  4.10641842E+00
  7.88860905E-31 -5.09357237E+00  4.10641842E+00  7.88860905E-31 -5.09357237E+00
  4.10641842E+00  7.88860905E-31 -4.05118108E+00 -1.23646405E+00  4.93038066E-31
 -4.05118108E+00 -1.23646405E+00  4.93038066E-31 -4.05118108E+00 -1.23646405E+00
  4.93038066E-31 -4.05118108E+00 -1.23646405E+00  4.93038066E-31 -4.05118108E+00
 -1.23646405E+00  4.93038066E-31 -7.60591322E-02 -4.77456595E+00  0.00000000E+00
 -7.60591322E-02 -4.77456595E+00  0.00000000E+00 -7.60591322E-02 -4.77456595E+00
  0.00000000E+00 -7.60591322E-02 -4.77456595E+00  0.00000000E+00 -7.60591322E-02
 -4.77456595E+00  0.00000000E+00 -7.60591322E-02 -4.77456595E+00  0.00000000E+00
 -7.60591322E-02 -4.77456595E+00  0.00000000E+00 -7.60591322E-02 -4.77456595E+00
  0.00000000E+00 -7.60591322E-02 -4.77456595E+00  0.00000000E+00 -7.60591322E-02
 -4.77456595E+00  0.00000000E+00 -7.60591322E-02 -4.77456595E+00  0.00000000E+00
 -7.60591322E-02 -4.77456595E+00  0.00000000E+00 -7.60591322E-02 -4.77456595E+00
  0.00000000E+00  5.15167600E+00 -1.78983229E+00 -5.91645679E-31  5.15167600E+00
 -1.78983229E+00 -5.91645679E-31  5.15167600E+00 -1.78983229E+00 -5.91645679E-31
  5.15167600E+00 -1.78983229E+00 -5.91645679E-31  5.15167600E+00 -1.78983229E+00
 -5.91645679E-31  5.15167600E+00 -1.78983229E+00 -5.91645679E-31  5.15167600E+00
 -1.78983229E+00 -5.91645679E-31  5.15167600E+00 -1.78983229E+00 -5.91645679E-31
  5.15167600E+00 -1.78983229E+00 -5.91645679E-31  5.15167600E+00 -1.78983229E+00
 -5.91645679E-31  5.15167600E+00 -1.78983229E+00 -5.91645679E-31  5.15167600E+00
 -1.78983229E+00 -5.91645679E-31  5.15167600E+00 -1.78983229E+00 -5.91645679E-31
  4.07869319E+00  3.46046889E+00 -3.94430453E-31  4.07869319E+00  3.46046889E+00
 -3.94430453E-31  4.07869319E+00  3.46046889E+00 -3.94430453E-31  4.07869319E+00
  3.46046889E+00 -3.94430453E-31  4.07869319E+00  3.46046889E+00 -3.94430453E-31
Num ILSW                                   I              100
ILSW                                       I   N=         100
           1           0           0           0           2           0
           0           0           0           0        4336          -1
           5           0           0           0           2           0
           0           0           1           0           1           0
           1           0           0           0           0           0
           0           0      100000           0          -1           0
           0           0           0           0           0           0
           0           0           0           1           0           0
           0 -2000000000           1           0           0           0
           0           0           4          52           0           0
           0           0          55           0           0           0
           0           0           0           0           0           1
           0           0           0           0           0           0
           0           0           0           0           0           0
           0           0           0           0           0           0
           0           0           0           0           0           0
           0           0           0           0
Num RLSW                                   I               52
RLSW                                       R   N=          52