Neutral Radical (removed 1) _35                                         
Freq      UM062X                                                      6-311++G(d,p)       
Number of atoms                            I               11
Info1-9                                    I   N=           9
           8           6        1002           0           0         100
           6          18       -5502
Full Title                                 C   N=           3
Neutral Radical (removed 1) _35     
Route                                      C   N=           5
# opt freq 6-311++g(d,p) guess=read geom=allcheck m062x     
Charge                                     I                0
Multiplicity                               I                2
Number of electrons                        I               73
Number of alpha electrons                  I               37
Number of beta electrons                   I               36
Number of basis functions                  I              213
Number of independent functions            I              213
Number of point charges in /Mol/           I                0
Number of translation vectors              I                0
Atomic numbers                             I   N=          11
           6           6           6           6           6           6
           1          17           1          17           1
Nuclear charges                            R   N=          11
  6.00000000E+00  6.00000000E+00  6.00000000E+00  6.00000000E+00  6.00000000E+00
  6.00000000E+00  1.00000000E+00  1.70000000E+01  1.00000000E+00  1.70000000E+01
  1.00000000E+00
Current cartesian coordinates              R   N=          33
  2.72304694E+00 -2.31596194E+00 -1.97215226E-31  8.78211183E-02 -2.26140993E+00
 -4.93038066E-32 -1.24874849E+00  1.91173765E-08  3.52078426E-32  8.78211183E-02
  2.26140994E+00  4.93038066E-32  2.72304695E+00  2.31596197E+00 -1.47911420E-31
  3.88605495E+00  2.22044605E-16 -2.24376669E-31  3.74326136E+00 -4.08861995E+00
 -2.95822839E-31 -1.58085351E+00 -5.09514279E+00 -1.97215226E-31 -3.29176004E+00
 -4.45992553E-40  1.13140297E-31 -1.58085344E+00  5.09514277E+00  2.95822839E-31
  3.74326133E+00  4.08861989E+00  0.00000000E+00
Number of symbols in /Mol/                 I                0
Force Field                                I                0
Atom Types                                 C   N=          11
                                                            
                                                            
            
Int Atom Types                             I   N=          11
           0           0           0           0           0           0
           0           0           0           0           0
MM charges                                 R   N=          11
  0.00000000E+00  0.00000000E+00  0.00000000E+00  0.00000000E+00  0.00000000E+00
  0.00000000E+00  0.00000000E+00  0.00000000E+00  0.00000000E+00  0.00000000E+00
  0.00000000E+00
Integer atomic weights                     I   N=          11
          12          12          12          12          12          12
           1          35           1          35           1
Real atomic weights                        R   N=          11
  1.20000000E+01  1.20000000E+01  1.20000000E+01  1.20000000E+01  1.20000000E+01
  1.20000000E+01  1.00782504E+00  3.49688527E+01  1.00782504E+00  3.49688527E+01
  1.00782504E+00
Atom fragment info                         I   N=          11
           0           0           0           0           0           0
           0           0           0           0           0
Atom residue num                           I   N=          11
           0           0           0           0           0           0
           0           0           0           0           0
Nuclear spins                              I   N=          11
           0           0           0           0           0           0
           1           3           1           3           1
Nuclear ZEff                               R   N=          11
 -3.60000000E+00 -3.60000000E+00 -3.60000000E+00 -3.60000000E+00 -3.60000000E+00
 -3.60000000E+00 -1.00000000E+00 -1.42400000E+01 -1.00000000E+00 -1.42400000E+01
 -1.00000000E+00
Nuclear ZNuc                               R   N=          11
  6.00000000E+00  6.00000000E+00  6.00000000E+00  6.00000000E+00  6.00000000E+00
  6.00000000E+00  1.00000000E+00  1.70000000E+01  1.00000000E+00  1.70000000E+01
  1.00000000E+00
Nuclear QMom                               R   N=          11
  0.00000000E+00  0.00000000E+00  0.00000000E+00  0.00000000E+00  0.00000000E+00
  0.00000000E+00  0.00000000E+00 -8.16500000E+00  0.00000000E+00 -8.16500000E+00
  0.00000000E+00
Nuclear GFac                               R   N=          11
  0.00000000E+00  0.00000000E+00  0.00000000E+00  0.00000000E+00  0.00000000E+00
  0.00000000E+00  2.79284600E+00  8.21874000E-01  2.79284600E+00  8.21874000E-01
  2.79284600E+00
MicOpt                                     I   N=          11
          -1          -1          -1          -1          -1          -1
          -1          -1          -1          -1          -1
Number of residues                         I                0
Number of secondary structures             I                0
Redundant internal dimensions              I   N=           4
          47          11          16          20
Redundant internal coordinate indices      I   N=         188
           1           2           0           0           1           6
           0           0           1           7           0           0
           2           3           0           0           2           8
           0           0           3           4           0           0
           3           9           0           0           4           5
           0           0           4          10           0           0
           5           6           0           0           5          11
           0           0           2           1           6           0
           2           1           7           0           6           1
           7           0           1           2           3           0
           1           2           8           0           3           2
           8           0           2           3           4           0
           2           3           9           0           4           3
           9           0           3           4           5           0
           3           4          10           0           5           4
          10           0           4           5           6           0
           4           5          11           0           6           5
          11           0           1           6           5           0
           6           1           2           3           6           1
           2           8           7           1           2           3
           7           1           2           8           2           1
           6           5           7           1           6           5
           1           2           3           4           1           2
           3           9           8           2           3           4
           8           2           3           9           2           3
           4           5           2           3           4          10
           9           3           4           5           9           3
           4          10           3           4           5           6
           3           4           5          11          10           4
           5           6          10           4           5          11
           4           5           6           1          11           5
           6           1
Redundant internal coordinates             R   N=          47
  2.63579040E+00  2.59157623E+00  2.04527600E+00  2.62685996E+00  3.28854329E+00
  2.62685994E+00  2.04301155E+00  2.63579041E+00  3.28854323E+00  2.59157625E+00
  2.04527590E+00  2.01548079E+00  2.11372548E+00  2.15397903E+00  2.12529503E+00
  2.08228697E+00  2.07560331E+00  2.07399148E+00  2.10459690E+00  2.10459693E+00
  2.12529504E+00  2.07560332E+00  2.08228695E+00  2.01548078E+00  2.11372550E+00
  2.15397903E+00  2.21082749E+00  0.00000000E+00  3.14159265E+00  3.14159265E+00
 -0.00000000E+00 -0.00000000E+00  3.14159265E+00 -0.00000000E+00  3.14159265E+00
  3.14159265E+00  0.00000000E+00  0.00000000E+00  3.14159265E+00  3.14159265E+00
 -0.00000000E+00 -0.00000000E+00  3.14159265E+00  3.14159265E+00  0.00000000E+00
  0.00000000E+00  3.14159265E+00
ZRed-IntVec                                I   N=          47
           0           0           0           0           0           0
           0           0           0           0           0           0
           0           0           0           0           0           0
           0           0           0           0           0           0
           0           0           0           0           0           0
           0           0           0           0           0           0
           0           0           0           0           0           0
           0           0           0           0           0
ZRed-FPVec                                 R   N=          47
  0.00000000E+00  0.00000000E+00  0.00000000E+00  0.00000000E+00  0.00000000E+00
  0.00000000E+00  0.00000000E+00  0.00000000E+00  0.00000000E+00  0.00000000E+00
  0.00000000E+00  0.00000000E+00  0.00000000E+00  0.00000000E+00  0.00000000E+00
  0.00000000E+00  0.00000000E+00  0.00000000E+00  0.00000000E+00  0.00000000E+00
  0.00000000E+00  0.00000000E+00  0.00000000E+00  0.00000000E+00  0.00000000E+00
  0.00000000E+00  0.00000000E+00  0.00000000E+00  0.00000000E+00  0.00000000E+00
  0.00000000E+00  0.00000000E+00  0.00000000E+00  0.00000000E+00  0.00000000E+00
  0.00000000E+00  0.00000000E+00  0.00000000E+00  0.00000000E+00  0.00000000E+00
  0.00000000E+00  0.00000000E+00  0.00000000E+00  0.00000000E+00  0.00000000E+00
  0.00000000E+00  0.00000000E+00
ZRed-Constraint1                           R   N=          47
  2.63579040E+00  2.59157623E+00  2.04527600E+00  2.62685996E+00  3.28854329E+00
  2.62685994E+00  2.04301155E+00  2.63579041E+00  3.28854323E+00  2.59157625E+00
  2.04527590E+00  2.01548079E+00  2.11372548E+00  2.15397903E+00  2.12529503E+00
  2.08228697E+00  2.07560331E+00  2.07399148E+00  2.10459690E+00  2.10459693E+00
  2.12529504E+00  2.07560332E+00  2.08228695E+00  2.01548078E+00  2.11372550E+00
  2.15397903E+00  2.21082749E+00 -0.00000000E+00  3.14159265E+00  3.14159265E+00
 -0.00000000E+00 -0.00000000E+00  3.14159265E+00  0.00000000E+00  3.14159265E+00
  3.14159265E+00 -0.00000000E+00 -0.00000000E+00  3.14159265E+00  3.14159265E+00
  0.00000000E+00  0.00000000E+00  3.14159265E+00  3.14159265E+00 -0.00000000E+00
  0.00000000E+00  3.14159265E+00
ZRed-Constraint2                           R   N=          47
  2.67215618E+00  2.58911741E+00  2.07274555E+00  2.65846305E+00  3.19811282E+00
  2.65846307E+00  2.08137455E+00  2.67215653E+00  3.19811275E+00  2.58911767E+00
  2.07277067E+00  1.99449956E+00  2.13842632E+00  2.15025942E+00  2.10431690E+00
  2.08980426E+00  2.08906414E+00  2.10252315E+00  2.09033100E+00  2.09033116E+00
  2.10431700E+00  2.08906409E+00  2.08980421E+00  1.99449926E+00  2.13842647E+00
  2.15025958E+00  2.26621473E+00  0.00000000E+00  3.14159265E+00  3.14159265E+00
  0.00000000E+00  0.00000000E+00  3.14159265E+00  0.00000000E+00  3.14159265E+00
  3.14159265E+00  0.00000000E+00  0.00000000E+00  3.14159265E+00  3.14159265E+00
  0.00000000E+00  0.00000000E+00  3.14159265E+00  3.14159265E+00  0.00000000E+00
  0.00000000E+00  3.14159265E+00
SymInf integers                            I   N=          26
           1           2           1           1           1           1
           1          -1           0           0           0           0
           0           0           0           0           0           0
           0           0           0           0           0           0
           0           0
RotTr to input orientation                 R   N=          12
 -8.51968475E-01 -5.23593084E-01  1.10633996E-24  5.23593084E-01 -8.51968475E-01
  1.22464680E-16 -6.41216585E-17  1.04336047E-16  1.00000000E+00 -2.54436144E+00
 -1.60263471E-01  1.21870089E-21
Number of contracted shells                I               77
Number of primitive shells                 I              149
Pure/Cartesian d shells                    I                0
Pure/Cartesian f shells                    I                0
Highest angular momentum                   I                2
Largest degree of contraction              I                6
Shell types                                I   N=          77
           0          -1          -1          -1          -1          -2
           0          -1          -1          -1          -1          -2
           0          -1          -1          -1          -1          -2
           0          -1          -1          -1          -1          -2
           0          -1          -1          -1          -1          -2
           0          -1          -1          -1          -1          -2
           0           0           0           0           1           0
           0           0           0           0           0          -1
           1           1           1           1           1          -2
           0           0           0           0           1           0
           0           0           0           0           0          -1
           1           1           1           1           1          -2
           0           0           0           0           1
Number of primitives per shell             I   N=          77
           6           3           1           1           1           1
           6           3           1           1           1           1
           6           3           1           1           1           1
           6           3           1           1           1           1
           6           3           1           1           1           1
           6           3           1           1           1           1
           3           1           1           1           1           6
           3           1           1           1           1           1
           5           2           1           1           1           1
           3           1           1           1           1           6
           3           1           1           1           1           1
           5           2           1           1           1           1
           3           1           1           1           1
Shell to atom map                          I   N=          77
           1           1           1           1           1           1
           2           2           2           2           2           2
           3           3           3           3           3           3
           4           4           4           4           4           4
           5           5           5           5           5           5
           6           6           6           6           6           6
           7           7           7           7           7           8
           8           8           8           8           8           8
           8           8           8           8           8           8
           9           9           9           9           9          10
          10          10          10          10          10          10
          10          10          10          10          10          10
          11          11          11          11          11
Primitive exponents                        R   N=         149
  4.56324000E+03  6.82024000E+02  1.54973000E+02  4.44553000E+01  1.30290000E+01
  1.82773000E+00  2.09642000E+01  4.80331000E+00  1.45933000E+00  4.83456000E-01
  1.45585000E-01  4.38000000E-02  6.26000000E-01  4.56324000E+03  6.82024000E+02
  1.54973000E+02  4.44553000E+01  1.30290000E+01  1.82773000E+00  2.09642000E+01
  4.80331000E+00  1.45933000E+00  4.83456000E-01  1.45585000E-01  4.38000000E-02
  6.26000000E-01  4.56324000E+03  6.82024000E+02  1.54973000E+02  4.44553000E+01
  1.30290000E+01  1.82773000E+00  2.09642000E+01  4.80331000E+00  1.45933000E+00
  4.83456000E-01  1.45585000E-01  4.38000000E-02  6.26000000E-01  4.56324000E+03
  6.82024000E+02  1.54973000E+02  4.44553000E+01  1.30290000E+01  1.82773000E+00
  2.09642000E+01  4.80331000E+00  1.45933000E+00  4.83456000E-01  1.45585000E-01
  4.38000000E-02  6.26000000E-01  4.56324000E+03  6.82024000E+02  1.54973000E+02
  4.44553000E+01  1.30290000E+01  1.82773000E+00  2.09642000E+01  4.80331000E+00
  1.45933000E+00  4.83456000E-01  1.45585000E-01  4.38000000E-02  6.26000000E-01
  4.56324000E+03  6.82024000E+02  1.54973000E+02  4.44553000E+01  1.30290000E+01
  1.82773000E+00  2.09642000E+01  4.80331000E+00  1.45933000E+00  4.83456000E-01
  1.45585000E-01  4.38000000E-02  6.26000000E-01  3.38650000E+01  5.09479000E+00
  1.15879000E+00  3.25840000E-01  1.02741000E-01  3.60000000E-02  7.50000000E-01
  1.05819000E+05  1.58720000E+04  3.61965000E+03  1.03080000E+03  3.39908000E+02
  1.24538000E+02  1.24538000E+02  4.95135000E+01  2.08056000E+01  6.58346000E+00
  2.56468000E+00  5.59763000E-01  1.83273000E-01  4.83000000E-02  5.89776000E+02
  1.39849000E+02  4.51413000E+01  1.68733000E+01  2.77152000E+00  6.74110000E+00
  2.77152000E+00  1.02387000E+00  3.81368000E-01  1.09437000E-01  7.50000000E-01
  3.38650000E+01  5.09479000E+00  1.15879000E+00  3.25840000E-01  1.02741000E-01
  3.60000000E-02  7.50000000E-01  1.05819000E+05  1.58720000E+04  3.61965000E+03
  1.03080000E+03  3.39908000E+02  1.24538000E+02  1.24538000E+02  4.95135000E+01
  2.08056000E+01  6.58346000E+00  2.56468000E+00  5.59763000E-01  1.83273000E-01
  4.83000000E-02  5.89776000E+02  1.39849000E+02  4.51413000E+01  1.68733000E+01
  2.77152000E+00  6.74110000E+00  2.77152000E+00  1.02387000E+00  3.81368000E-01
  1.09437000E-01  7.50000000E-01  3.38650000E+01  5.09479000E+00  1.15879000E+00
  3.25840000E-01  1.02741000E-01  3.60000000E-02  7.50000000E-01
Contraction coefficients                   R   N=         149
  1.96665025E-03  1.52306019E-02  7.61269097E-02  2.60801033E-01  6.16462078E-01
  2.21006028E-01  1.14660081E-01  9.19999648E-01 -3.03068213E-03  1.00000000E+00
  1.00000000E+00  1.00000000E+00  1.00000000E+00  1.96665025E-03  1.52306019E-02
  7.61269097E-02  2.60801033E-01  6.16462078E-01  2.21006028E-01  1.14660081E-01
  9.19999648E-01 -3.03068213E-03  1.00000000E+00  1.00000000E+00  1.00000000E+00
  1.00000000E+00  1.96665025E-03  1.52306019E-02  7.61269097E-02  2.60801033E-01
  6.16462078E-01  2.21006028E-01  1.14660081E-01  9.19999648E-01 -3.03068213E-03
  1.00000000E+00  1.00000000E+00  1.00000000E+00  1.00000000E+00  1.96665025E-03
  1.52306019E-02  7.61269097E-02  2.60801033E-01  6.16462078E-01  2.21006028E-01
  1.14660081E-01  9.19999648E-01 -3.03068213E-03  1.00000000E+00  1.00000000E+00
  1.00000000E+00  1.00000000E+00  1.96665025E-03  1.52306019E-02  7.61269097E-02
  2.60801033E-01  6.16462078E-01  2.21006028E-01  1.14660081E-01  9.19999648E-01
 -3.03068213E-03  1.00000000E+00  1.00000000E+00  1.00000000E+00  1.00000000E+00
  1.96665025E-03  1.52306019E-02  7.61269097E-02  2.60801033E-01  6.16462078E-01
  2.21006028E-01  1.14660081E-01  9.19999648E-01 -3.03068213E-03  1.00000000E+00
  1.00000000E+00  1.00000000E+00  1.00000000E+00  2.54938145E-02  1.90373109E-01
  8.52161486E-01  1.00000000E+00  1.00000000E+00  1.00000000E+00  1.00000000E+00
  7.38000247E-04  5.71800191E-03  2.94950099E-02  1.17286039E-01  3.62949121E-01
  5.84149195E-01  1.34176973E-01  6.24249876E-01  2.91755942E-01  1.00000000E+00
  1.00000000E+00  1.00000000E+00  1.00000000E+00  1.00000000E+00  3.66556935E-03
  2.83679194E-02  1.24756603E-01  3.39654631E-01  7.47585963E-01 -1.57224381E+00
  9.92388882E-01  1.00000000E+00  1.00000000E+00  1.00000000E+00  1.00000000E+00
  2.54938145E-02  1.90373109E-01  8.52161486E-01  1.00000000E+00  1.00000000E+00
  1.00000000E+00  1.00000000E+00  7.38000247E-04  5.71800191E-03  2.94950099E-02
  1.17286039E-01  3.62949121E-01  5.84149195E-01  1.34176973E-01  6.24249876E-01
  2.91755942E-01  1.00000000E+00  1.00000000E+00  1.00000000E+00  1.00000000E+00
  1.00000000E+00  3.66556935E-03  2.83679194E-02  1.24756603E-01  3.39654631E-01
  7.47585963E-01 -1.57224381E+00  9.92388882E-01  1.00000000E+00  1.00000000E+00
  1.00000000E+00  1.00000000E+00  2.54938145E-02  1.90373109E-01  8.52161486E-01
  1.00000000E+00  1.00000000E+00  1.00000000E+00  1.00000000E+00
P(S=P) Contraction coefficients            R   N=         149
  0.00000000E+00  0.00000000E+00  0.00000000E+00  0.00000000E+00  0.00000000E+00
  0.00000000E+00  4.02486927E-02  2.37593957E-01  8.15853851E-01  1.00000000E+00
  1.00000000E+00  1.00000000E+00  0.00000000E+00  0.00000000E+00  0.00000000E+00
  0.00000000E+00  0.00000000E+00  0.00000000E+00  0.00000000E+00  4.02486927E-02
  2.37593957E-01  8.15853851E-01  1.00000000E+00  1.00000000E+00  1.00000000E+00
  0.00000000E+00  0.00000000E+00  0.00000000E+00  0.00000000E+00  0.00000000E+00
  0.00000000E+00  0.00000000E+00  4.02486927E-02  2.37593957E-01  8.15853851E-01
  1.00000000E+00  1.00000000E+00  1.00000000E+00  0.00000000E+00  0.00000000E+00
  0.00000000E+00  0.00000000E+00  0.00000000E+00  0.00000000E+00  0.00000000E+00
  4.02486927E-02  2.37593957E-01  8.15853851E-01  1.00000000E+00  1.00000000E+00
  1.00000000E+00  0.00000000E+00  0.00000000E+00  0.00000000E+00  0.00000000E+00
  0.00000000E+00  0.00000000E+00  0.00000000E+00  4.02486927E-02  2.37593957E-01
  8.15853851E-01  1.00000000E+00  1.00000000E+00  1.00000000E+00  0.00000000E+00
  0.00000000E+00  0.00000000E+00  0.00000000E+00  0.00000000E+00  0.00000000E+00
  0.00000000E+00  4.02486927E-02  2.37593957E-01  8.15853851E-01  1.00000000E+00
  1.00000000E+00  1.00000000E+00  0.00000000E+00  0.00000000E+00  0.00000000E+00
  0.00000000E+00  0.00000000E+00  0.00000000E+00  0.00000000E+00  0.00000000E+00
  0.00000000E+00  0.00000000E+00  0.00000000E+00  0.00000000E+00  0.00000000E+00
  0.00000000E+00  0.00000000E+00  0.00000000E+00  0.00000000E+00  0.00000000E+00
  0.00000000E+00  0.00000000E+00  0.00000000E+00  1.00000000E+00  0.00000000E+00
  0.00000000E+00  0.00000000E+00  0.00000000E+00  0.00000000E+00  0.00000000E+00
  0.00000000E+00  0.00000000E+00  0.00000000E+00  0.00000000E+00  0.00000000E+00
  0.00000000E+00  0.00000000E+00  0.00000000E+00  0.00000000E+00  0.00000000E+00
  0.00000000E+00  0.00000000E+00  0.00000000E+00  0.00000000E+00  0.00000000E+00
  0.00000000E+00  0.00000000E+00  0.00000000E+00  0.00000000E+00  0.00000000E+00
  0.00000000E+00  0.00000000E+00  0.00000000E+00  0.00000000E+00  0.00000000E+00
  1.00000000E+00  0.00000000E+00  0.00000000E+00  0.00000000E+00  0.00000000E+00
  0.00000000E+00  0.00000000E+00  0.00000000E+00  0.00000000E+00  0.00000000E+00
  0.00000000E+00  0.00000000E+00  0.00000000E+00  0.00000000E+00  0.00000000E+00
  0.00000000E+00  0.00000000E+00  0.00000000E+00  0.00000000E+00
Coordinates of each shell                  R   N=         231
  2.72304694E+00 -2.31596194E+00 -1.47911420E-31  2.72304694E+00 -2.31596194E+00
 -1.47911420E-31  2.72304694E+00 -2.31596194E+00 -1.47911420E-31  2.72304694E+00
 -2.31596194E+00 -1.47911420E-31  2.72304694E+00 -2.31596194E+00 -1.47911420E-31
  2.72304694E+00 -2.31596194E+00 -1.47911420E-31  8.78211183E-02 -2.26140993E+00
 -4.93038066E-32  8.78211183E-02 -2.26140993E+00 -4.93038066E-32  8.78211183E-02
 -2.26140993E+00 -4.93038066E-32  8.78211183E-02 -2.26140993E+00 -4.93038066E-32
  8.78211183E-02 -2.26140993E+00 -4.93038066E-32  8.78211183E-02 -2.26140993E+00
 -4.93038066E-32 -1.24874849E+00  1.91173765E-08  3.32269935E-32 -1.24874849E+00
  1.91173765E-08  3.32269935E-32 -1.24874849E+00  1.91173765E-08  3.32269935E-32
 -1.24874849E+00  1.91173765E-08  3.32269935E-32 -1.24874849E+00  1.91173765E-08
  3.32269935E-32 -1.24874849E+00  1.91173765E-08  3.32269935E-32  8.78211183E-02
  2.26140994E+00  4.93038066E-32  8.78211183E-02  2.26140994E+00  4.93038066E-32
  8.78211183E-02  2.26140994E+00  4.93038066E-32  8.78211183E-02  2.26140994E+00
  4.93038066E-32  8.78211183E-02  2.26140994E+00  4.93038066E-32  8.78211183E-02
  2.26140994E+00  4.93038066E-32  2.72304695E+00  2.31596197E+00 -9.86076132E-32
  2.72304695E+00  2.31596197E+00 -9.86076132E-32  2.72304695E+00  2.31596197E+00
 -9.86076132E-32  2.72304695E+00  2.31596197E+00 -9.86076132E-32  2.72304695E+00
  2.31596197E+00 -9.86076132E-32  2.72304695E+00  2.31596197E+00 -9.86076132E-32
  3.88605495E+00 -2.22044605E-16 -1.22558358E-31  3.88605495E+00 -2.22044605E-16
 -1.22558358E-31  3.88605495E+00 -2.22044605E-16 -1.22558358E-31  3.88605495E+00
 -2.22044605E-16 -1.22558358E-31  3.88605495E+00 -2.22044605E-16 -1.22558358E-31
  3.88605495E+00 -2.22044605E-16 -1.22558358E-31  3.74326136E+00 -4.08861995E+00
 -1.97215226E-31  3.74326136E+00 -4.08861995E+00 -1.97215226E-31  3.74326136E+00
 -4.08861995E+00 -1.97215226E-31  3.74326136E+00 -4.08861995E+00 -1.97215226E-31
  3.74326136E+00 -4.08861995E+00 -1.97215226E-31 -1.58085351E+00 -5.09514279E+00
 -9.86076132E-32 -1.58085351E+00 -5.09514279E+00 -9.86076132E-32 -1.58085351E+00
 -5.09514279E+00 -9.86076132E-32 -1.58085351E+00 -5.09514279E+00 -9.86076132E-32
 -1.58085351E+00 -5.09514279E+00 -9.86076132E-32 -1.58085351E+00 -5.09514279E+00
 -9.86076132E-32 -1.58085351E+00 -5.09514279E+00 -9.86076132E-32 -1.58085351E+00
 -5.09514279E+00 -9.86076132E-32 -1.58085351E+00 -5.09514279E+00 -9.86076132E-32
 -1.58085351E+00 -5.09514279E+00 -9.86076132E-32 -1.58085351E+00 -5.09514279E+00
 -9.86076132E-32 -1.58085351E+00 -5.09514279E+00 -9.86076132E-32 -1.58085351E+00
 -5.09514279E+00 -9.86076132E-32 -3.29176004E+00 -4.45992555E-40  9.77531698E-32
 -3.29176004E+00 -4.45992555E-40  9.77531698E-32 -3.29176004E+00 -4.45992555E-40
  9.77531698E-32 -3.29176004E+00 -4.45992555E-40  9.77531698E-32 -3.29176004E+00
 -4.45992555E-40  9.77531698E-32 -1.58085344E+00  5.09514277E+00  1.97215226E-31
 -1.58085344E+00  5.09514277E+00  1.97215226E-31 -1.58085344E+00  5.09514277E+00
  1.97215226E-31 -1.58085344E+00  5.09514277E+00  1.97215226E-31 -1.58085344E+00
  5.09514277E+00  1.97215226E-31 -1.58085344E+00  5.09514277E+00  1.97215226E-31
 -1.58085344E+00  5.09514277E+00  1.97215226E-31 -1.58085344E+00  5.09514277E+00
  1.97215226E-31 -1.58085344E+00  5.09514277E+00  1.97215226E-31 -1.58085344E+00
  5.09514277E+00  1.97215226E-31 -1.58085344E+00  5.09514277E+00  1.97215226E-31
 -1.58085344E+00  5.09514277E+00  1.97215226E-31 -1.58085344E+00  5.09514277E+00
  1.97215226E-31  3.74326133E+00  4.08861989E+00  0.00000000E+00  3.74326133E+00
  4.08861989E+00  0.00000000E+00  3.74326133E+00  4.08861989E+00  0.00000000E+00
  3.74326133E+00  4.08861989E+00  0.00000000E+00  3.74326133E+00  4.08861989E+00
  0.00000000E+00
Num ILSW                                   I              100
ILSW                                       I   N=         100
           1           0           0           0           2           0
           0           0           0           0        4336          -1
           5           0           0           0           2           0
           0           0           1           0           1           0
           1           0           0           0           0           0
           0           0      100000           0          -1           0
           0           0           0           0           0           0
           0           0           0           1           0           0
           0 -2000000000           1           0           0           0
           0           0           4          52           0           0
           0           0          55           0           0           0
           0           0           0           0           0           1
           0           0           0           0           0           0
           0           0           0           0           0           0
           0           0           0           0           0           0
           0           0           0           0           0           0
           0           0           0           0
Num RLSW                                   I               52
RLSW                                       R   N=          52
  1.00000000E+00  1.00000000E+00  1.00000000E+00  1.00000000E+00  5.40000000E-01
  0.00000000E+00  0.00000000E+00  1.00000000E+00  0.00000000E+00  0.00000000E+00
  0.00000000E+00  0.00000000E+00  1.00000000E+00  0.00000000E+00  0.00000000E+00
  0.00000000E+00  0.00000000E+00  1.00000000E+00  0.00000000E+00  0.00000000E+00
  0.00000000E+00  0.00000000E+00  1.00000000E+00  0.00000000E+00  0.00000000E+00
  0.00000000E+00  0.00000000E+00  1.00000000E+00  0.00000000E+00  0.00000000E+00
  0.00000000E+00  0.00000000E+00  1.00000000E+00  0.00000000E+00  0.00000000E+00
  0.00000000E+00  0.00000000E+00  0.00000000E+00  1.00000000E+00  1.00000000E+00
  0.00000000E+00  1.00000000E+00  0.00000000E+00  0.00000000E+00  0.00000000E+00
  0.00000000E+00  0.00000000E+00  0.00000000E+00  0.00000000E+00  0.00000000E+00
  0.00000000E+00  0.00000000E+00
MxBond                                     I                3
NBond                                      I   N=          11
           3           3           3           3           3           2
           1           1           1           1           1
IBond                                      I   N=          33
           2           6           7           1           3           8
           2           4           9           3           5          10
           4           6          11           1           5           0
           1           0           0           2           0           0
           3           0           0           4           0           0
           5           0           0
RBond                                      R   N=          33