Neutral Radical (removed 1) _4                                          
Freq      UM062X                                                      6-311++G(d,p)       
Number of atoms                            I               11
Info1-9                                    I   N=           9
           8           6        1002           0           0         100
           6          18       -5502
Full Title                                 C   N=           3
Neutral Radical (removed 1) _4      
Route                                      C   N=           5
# opt freq 6-311++g(d,p) guess=read geom=allcheck m062x     
Charge                                     I                0
Multiplicity                               I                2
Number of electrons                        I               57
Number of alpha electrons                  I               29
Number of beta electrons                   I               28
Number of basis functions                  I              190
Number of independent functions            I              190
Number of point charges in /Mol/           I                0
Number of translation vectors              I                0
Atomic numbers                             I   N=          11
           6           6           6           6           6           6
           1           1          17           1           1
Nuclear charges                            R   N=          11
  6.00000000E+00  6.00000000E+00  6.00000000E+00  6.00000000E+00  6.00000000E+00
  6.00000000E+00  1.00000000E+00  1.00000000E+00  1.70000000E+01  1.00000000E+00
  1.00000000E+00
Current cartesian coordinates              R   N=          33
  2.30344839E+00  3.08604820E+00  2.95822839E-31  2.29672433E+00  4.46872239E-01
  1.84889275E-32  3.20590254E-08 -8.28781245E-01 -9.86076132E-32 -2.29672434E+00
  4.46872260E-01  9.86076132E-32 -2.30344818E+00  3.08604815E+00  2.95822839E-31
  3.20590265E-08  4.28154954E+00  5.91645679E-31  4.07028301E+00  4.12038459E+00
  1.97215226E-31  4.04963861E+00 -6.09034202E-01 -1.97215226E-31 -1.07716627E-07
 -4.12555031E+00 -4.93038066E-31 -4.04963867E+00 -6.09034195E-01 -2.46519033E-32
 -4.07028273E+00  4.12038426E+00  3.94430453E-31
Number of symbols in /Mol/                 I                0
Force Field                                I                0
Atom Types                                 C   N=          11
                                                            
                                                            
            
Int Atom Types                             I   N=          11
           0           0           0           0           0           0
           0           0           0           0           0
MM charges                                 R   N=          11
  0.00000000E+00  0.00000000E+00  0.00000000E+00  0.00000000E+00  0.00000000E+00
  0.00000000E+00  0.00000000E+00  0.00000000E+00  0.00000000E+00  0.00000000E+00
  0.00000000E+00
Integer atomic weights                     I   N=          11
          12          12          12          12          12          12
           1           1          35           1           1
Real atomic weights                        R   N=          11
  1.20000000E+01  1.20000000E+01  1.20000000E+01  1.20000000E+01  1.20000000E+01
  1.20000000E+01  1.00782504E+00  1.00782504E+00  3.49688527E+01  1.00782504E+00
  1.00782504E+00
Atom fragment info                         I   N=          11
           0           0           0           0           0           0
           0           0           0           0           0
Atom residue num                           I   N=          11
           0           0           0           0           0           0
           0           0           0           0           0
Nuclear spins                              I   N=          11
           0           0           0           0           0           0
           1           1           3           1           1
Nuclear ZEff                               R   N=          11
 -3.60000000E+00 -3.60000000E+00 -3.60000000E+00 -3.60000000E+00 -3.60000000E+00
 -3.60000000E+00 -1.00000000E+00 -1.00000000E+00 -1.42400000E+01 -1.00000000E+00
 -1.00000000E+00
Nuclear ZNuc                               R   N=          11
  6.00000000E+00  6.00000000E+00  6.00000000E+00  6.00000000E+00  6.00000000E+00
  6.00000000E+00  1.00000000E+00  1.00000000E+00  1.70000000E+01  1.00000000E+00
  1.00000000E+00
Nuclear QMom                               R   N=          11
  0.00000000E+00  0.00000000E+00  0.00000000E+00  0.00000000E+00  0.00000000E+00
  0.00000000E+00  0.00000000E+00  0.00000000E+00 -8.16500000E+00  0.00000000E+00
  0.00000000E+00
Nuclear GFac                               R   N=          11
  0.00000000E+00  0.00000000E+00  0.00000000E+00  0.00000000E+00  0.00000000E+00
  0.00000000E+00  2.79284600E+00  2.79284600E+00  8.21874000E-01  2.79284600E+00
  2.79284600E+00
MicOpt                                     I   N=          11
          -1          -1          -1          -1          -1          -1
          -1          -1          -1          -1          -1
Number of residues                         I                0
Number of secondary structures             I                0
Redundant internal dimensions              I   N=           4
          47          11          16          20
Redundant internal coordinate indices      I   N=         188
           1           2           0           0           1           6
           0           0           1           7           0           0
           2           3           0           0           2           8
           0           0           3           4           0           0
           3           9           0           0           4           5
           0           0           4          10           0           0
           5           6           0           0           5          11
           0           0           2           1           6           0
           2           1           7           0           6           1
           7           0           1           2           3           0
           1           2           8           0           3           2
           8           0           2           3           4           0
           2           3           9           0           4           3
           9           0           3           4           5           0
           3           4          10           0           5           4
          10           0           4           5           6           0
           4           5          11           0           6           5
          11           0           1           6           5           0
           6           1           2           3           6           1
           2           8           7           1           2           3
           7           1           2           8           2           1
           6           5           7           1           6           5
           1           2           3           4           1           2
           3           9           8           2           3           4
           8           2           3           9           2           3
           4           5           2           3           4          10
           9           3           4           5           9           3
           4          10           3           4           5           6
           3           4           5          11          10           4
           5           6          10           4           5          11
           4           5           6           1          11           5
           6           1
Redundant internal coordinates             R   N=          47
  2.63918453E+00  2.59520670E+00  2.04732907E+00  2.62721037E+00  2.04637408E+00
  2.62721045E+00  3.29676907E+00  2.63918445E+00  2.04637413E+00  2.59520659E+00
  2.04732888E+00  2.04698434E+00  2.10297238E+00  2.13322859E+00  2.08034131E+00
  2.11041032E+00  2.09243368E+00  2.12759826E+00  2.07779357E+00  2.07779348E+00
  2.08034122E+00  2.09243369E+00  2.11041040E+00  2.04698447E+00  2.10297219E+00
  2.13322864E+00  2.18412102E+00  0.00000000E+00  3.14159265E+00  3.14159265E+00
  0.00000000E+00 -0.00000000E+00  3.14159265E+00 -0.00000000E+00  3.14159265E+00
  3.14159265E+00  0.00000000E+00  0.00000000E+00  3.14159265E+00  3.14159265E+00
  0.00000000E+00 -0.00000000E+00  3.14159265E+00  3.14159265E+00  0.00000000E+00
  0.00000000E+00  3.14159265E+00
ZRed-IntVec                                I   N=          47
           0           0           0           0           0           0
           0           0           0           0           0           0
           0           0           0           0           0           0
           0           0           0           0           0           0
           0           0           0           0           0           0
           0           0           0           0           0           0
           0           0           0           0           0           0
           0           0           0           0           0
ZRed-FPVec                                 R   N=          47
  0.00000000E+00  0.00000000E+00  0.00000000E+00  0.00000000E+00  0.00000000E+00
  0.00000000E+00  0.00000000E+00  0.00000000E+00  0.00000000E+00  0.00000000E+00
  0.00000000E+00  0.00000000E+00  0.00000000E+00  0.00000000E+00  0.00000000E+00
  0.00000000E+00  0.00000000E+00  0.00000000E+00  0.00000000E+00  0.00000000E+00
  0.00000000E+00  0.00000000E+00  0.00000000E+00  0.00000000E+00  0.00000000E+00
  0.00000000E+00  0.00000000E+00  0.00000000E+00  0.00000000E+00  0.00000000E+00
  0.00000000E+00  0.00000000E+00  0.00000000E+00  0.00000000E+00  0.00000000E+00
  0.00000000E+00  0.00000000E+00  0.00000000E+00  0.00000000E+00  0.00000000E+00
  0.00000000E+00  0.00000000E+00  0.00000000E+00  0.00000000E+00  0.00000000E+00
  0.00000000E+00  0.00000000E+00
ZRed-Constraint1                           R   N=          47
  2.63918453E+00  2.59520670E+00  2.04732907E+00  2.62721037E+00  2.04637408E+00
  2.62721045E+00  3.29676907E+00  2.63918445E+00  2.04637413E+00  2.59520659E+00
  2.04732888E+00  2.04698434E+00  2.10297238E+00  2.13322859E+00  2.08034131E+00
  2.11041032E+00  2.09243368E+00  2.12759826E+00  2.07779357E+00  2.07779348E+00
  2.08034122E+00  2.09243369E+00  2.11041040E+00  2.04698447E+00  2.10297219E+00
  2.13322864E+00  2.18412102E+00  0.00000000E+00  3.14159265E+00  3.14159265E+00
 -0.00000000E+00 -0.00000000E+00  3.14159265E+00 -0.00000000E+00  3.14159265E+00
  3.14159265E+00  0.00000000E+00  0.00000000E+00  3.14159265E+00  3.14159265E+00
  0.00000000E+00 -0.00000000E+00  3.14159265E+00  3.14159265E+00  0.00000000E+00
  0.00000000E+00  3.14159265E+00
ZRed-Constraint2                           R   N=          47
  2.65899469E+00  2.59146758E+00  2.07210011E+00  2.65969351E+00  2.07685027E+00
  2.65969361E+00  3.21081328E+00  2.65899308E+00  2.07689011E+00  2.59146571E+00
  2.07193998E+00  2.00997587E+00  2.12771973E+00  2.14548971E+00  2.08123754E+00
  2.09795764E+00  2.10399012E+00  2.13054375E+00  2.07632077E+00  2.07632078E+00
  2.08123579E+00  2.10399117E+00  2.09795835E+00  2.00997862E+00  2.12771836E+00
  2.14548833E+00  2.25339904E+00  0.00000000E+00  3.14159265E+00  3.14159265E+00
  0.00000000E+00  0.00000000E+00  3.14159265E+00  0.00000000E+00  3.14159265E+00
  3.14159265E+00  0.00000000E+00  0.00000000E+00  3.14159265E+00  3.14159265E+00
  0.00000000E+00  0.00000000E+00  3.14159265E+00  3.14159265E+00  0.00000000E+00
  0.00000000E+00  3.14159265E+00
SymInf integers                            I   N=          26
           1           2           1           1           1           1
           1          -1           0           0           0           0
           0           0           0           0           0           0
           0           0           0           0           0           0
           0           0
RotTr to input orientation                 R   N=          12
 -5.23592997E-01  8.51968529E-01  5.15459253E-24 -8.51968529E-01 -5.23592997E-01
  1.22464680E-16  1.04336056E-16  6.41216444E-17  1.00000000E+00 -2.22497689E+00
  3.60200634E-02 -3.26079729E-18
Number of contracted shells                I               69
Number of primitive shells                 I              131
Pure/Cartesian d shells                    I                0
Pure/Cartesian f shells                    I                0
Highest angular momentum                   I                2
Largest degree of contraction              I                6
Shell types                                I   N=          69
           0          -1          -1          -1          -1          -2
           0          -1          -1          -1          -1          -2
           0          -1          -1          -1          -1          -2
           0          -1          -1          -1          -1          -2
           0          -1          -1          -1          -1          -2
           0          -1          -1          -1          -1          -2
           0           0           0           0           1           0
           0           0           0           1           0           0
           0           0           0           0          -1           1
           1           1           1           1          -2           0
           0           0           0           1           0           0
           0           0           1
Number of primitives per shell             I   N=          69
           6           3           1           1           1           1
           6           3           1           1           1           1
           6           3           1           1           1           1
           6           3           1           1           1           1
           6           3           1           1           1           1
           6           3           1           1           1           1
           3           1           1           1           1           3
           1           1           1           1           6           3
           1           1           1           1           1           5
           2           1           1           1           1           3
           1           1           1           1           3           1
           1           1           1
Shell to atom map                          I   N=          69
           1           1           1           1           1           1
           2           2           2           2           2           2
           3           3           3           3           3           3
           4           4           4           4           4           4
           5           5           5           5           5           5
           6           6           6           6           6           6
           7           7           7           7           7           8
           8           8           8           8           9           9
           9           9           9           9           9           9
           9           9           9           9           9          10
          10          10          10          10          11          11
          11          11          11
Primitive exponents                        R   N=         131
  4.56324000E+03  6.82024000E+02  1.54973000E+02  4.44553000E+01  1.30290000E+01
  1.82773000E+00  2.09642000E+01  4.80331000E+00  1.45933000E+00  4.83456000E-01
  1.45585000E-01  4.38000000E-02  6.26000000E-01  4.56324000E+03  6.82024000E+02
  1.54973000E+02  4.44553000E+01  1.30290000E+01  1.82773000E+00  2.09642000E+01
  4.80331000E+00  1.45933000E+00  4.83456000E-01  1.45585000E-01  4.38000000E-02
  6.26000000E-01  4.56324000E+03  6.82024000E+02  1.54973000E+02  4.44553000E+01
  1.30290000E+01  1.82773000E+00  2.09642000E+01  4.80331000E+00  1.45933000E+00
  4.83456000E-01  1.45585000E-01  4.38000000E-02  6.26000000E-01  4.56324000E+03
  6.82024000E+02  1.54973000E+02  4.44553000E+01  1.30290000E+01  1.82773000E+00
  2.09642000E+01  4.80331000E+00  1.45933000E+00  4.83456000E-01  1.45585000E-01
  4.38000000E-02  6.26000000E-01  4.56324000E+03  6.82024000E+02  1.54973000E+02
  4.44553000E+01  1.30290000E+01  1.82773000E+00  2.09642000E+01  4.80331000E+00
  1.45933000E+00  4.83456000E-01  1.45585000E-01  4.38000000E-02  6.26000000E-01
  4.56324000E+03  6.82024000E+02  1.54973000E+02  4.44553000E+01  1.30290000E+01
  1.82773000E+00  2.09642000E+01  4.80331000E+00  1.45933000E+00  4.83456000E-01
  1.45585000E-01  4.38000000E-02  6.26000000E-01  3.38650000E+01  5.09479000E+00
  1.15879000E+00  3.25840000E-01  1.02741000E-01  3.60000000E-02  7.50000000E-01
  3.38650000E+01  5.09479000E+00  1.15879000E+00  3.25840000E-01  1.02741000E-01
  3.60000000E-02  7.50000000E-01  1.05819000E+05  1.58720000E+04  3.61965000E+03
  1.03080000E+03  3.39908000E+02  1.24538000E+02  1.24538000E+02  4.95135000E+01
  2.08056000E+01  6.58346000E+00  2.56468000E+00  5.59763000E-01  1.83273000E-01
  4.83000000E-02  5.89776000E+02  1.39849000E+02  4.51413000E+01  1.68733000E+01
  2.77152000E+00  6.74110000E+00  2.77152000E+00  1.02387000E+00  3.81368000E-01
  1.09437000E-01  7.50000000E-01  3.38650000E+01  5.09479000E+00  1.15879000E+00
  3.25840000E-01  1.02741000E-01  3.60000000E-02  7.50000000E-01  3.38650000E+01
  5.09479000E+00  1.15879000E+00  3.25840000E-01  1.02741000E-01  3.60000000E-02
  7.50000000E-01
Contraction coefficients                   R   N=         131
  1.96665025E-03  1.52306019E-02  7.61269097E-02  2.60801033E-01  6.16462078E-01
  2.21006028E-01  1.14660081E-01  9.19999648E-01 -3.03068213E-03  1.00000000E+00
  1.00000000E+00  1.00000000E+00  1.00000000E+00  1.96665025E-03  1.52306019E-02
  7.61269097E-02  2.60801033E-01  6.16462078E-01  2.21006028E-01  1.14660081E-01
  9.19999648E-01 -3.03068213E-03  1.00000000E+00  1.00000000E+00  1.00000000E+00
  1.00000000E+00  1.96665025E-03  1.52306019E-02  7.61269097E-02  2.60801033E-01
  6.16462078E-01  2.21006028E-01  1.14660081E-01  9.19999648E-01 -3.03068213E-03
  1.00000000E+00  1.00000000E+00  1.00000000E+00  1.00000000E+00  1.96665025E-03
  1.52306019E-02  7.61269097E-02  2.60801033E-01  6.16462078E-01  2.21006028E-01
  1.14660081E-01  9.19999648E-01 -3.03068213E-03  1.00000000E+00  1.00000000E+00
  1.00000000E+00  1.00000000E+00  1.96665025E-03  1.52306019E-02  7.61269097E-02
  2.60801033E-01  6.16462078E-01  2.21006028E-01  1.14660081E-01  9.19999648E-01
 -3.03068213E-03  1.00000000E+00  1.00000000E+00  1.00000000E+00  1.00000000E+00
  1.96665025E-03  1.52306019E-02  7.61269097E-02  2.60801033E-01  6.16462078E-01
  2.21006028E-01  1.14660081E-01  9.19999648E-01 -3.03068213E-03  1.00000000E+00
  1.00000000E+00  1.00000000E+00  1.00000000E+00  2.54938145E-02  1.90373109E-01
  8.52161486E-01  1.00000000E+00  1.00000000E+00  1.00000000E+00  1.00000000E+00
  2.54938145E-02  1.90373109E-01  8.52161486E-01  1.00000000E+00  1.00000000E+00
  1.00000000E+00  1.00000000E+00  7.38000247E-04  5.71800191E-03  2.94950099E-02
  1.17286039E-01  3.62949121E-01  5.84149195E-01  1.34176973E-01  6.24249876E-01
  2.91755942E-01  1.00000000E+00  1.00000000E+00  1.00000000E+00  1.00000000E+00
  1.00000000E+00  3.66556935E-03  2.83679194E-02  1.24756603E-01  3.39654631E-01
  7.47585963E-01 -1.57224381E+00  9.92388882E-01  1.00000000E+00  1.00000000E+00
  1.00000000E+00  1.00000000E+00  2.54938145E-02  1.90373109E-01  8.52161486E-01
  1.00000000E+00  1.00000000E+00  1.00000000E+00  1.00000000E+00  2.54938145E-02
  1.90373109E-01  8.52161486E-01  1.00000000E+00  1.00000000E+00  1.00000000E+00
  1.00000000E+00
P(S=P) Contraction coefficients            R   N=         131
  0.00000000E+00  0.00000000E+00  0.00000000E+00  0.00000000E+00  0.00000000E+00
  0.00000000E+00  4.02486927E-02  2.37593957E-01  8.15853851E-01  1.00000000E+00
  1.00000000E+00  1.00000000E+00  0.00000000E+00  0.00000000E+00  0.00000000E+00
  0.00000000E+00  0.00000000E+00  0.00000000E+00  0.00000000E+00  4.02486927E-02
  2.37593957E-01  8.15853851E-01  1.00000000E+00  1.00000000E+00  1.00000000E+00
  0.00000000E+00  0.00000000E+00  0.00000000E+00  0.00000000E+00  0.00000000E+00
  0.00000000E+00  0.00000000E+00  4.02486927E-02  2.37593957E-01  8.15853851E-01
  1.00000000E+00  1.00000000E+00  1.00000000E+00  0.00000000E+00  0.00000000E+00
  0.00000000E+00  0.00000000E+00  0.00000000E+00  0.00000000E+00  0.00000000E+00
  4.02486927E-02  2.37593957E-01  8.15853851E-01  1.00000000E+00  1.00000000E+00
  1.00000000E+00  0.00000000E+00  0.00000000E+00  0.00000000E+00  0.00000000E+00
  0.00000000E+00  0.00000000E+00  0.00000000E+00  4.02486927E-02  2.37593957E-01
  8.15853851E-01  1.00000000E+00  1.00000000E+00  1.00000000E+00  0.00000000E+00
  0.00000000E+00  0.00000000E+00  0.00000000E+00  0.00000000E+00  0.00000000E+00
  0.00000000E+00  4.02486927E-02  2.37593957E-01  8.15853851E-01  1.00000000E+00
  1.00000000E+00  1.00000000E+00  0.00000000E+00  0.00000000E+00  0.00000000E+00
  0.00000000E+00  0.00000000E+00  0.00000000E+00  0.00000000E+00  0.00000000E+00
  0.00000000E+00  0.00000000E+00  0.00000000E+00  0.00000000E+00  0.00000000E+00
  0.00000000E+00  0.00000000E+00  0.00000000E+00  0.00000000E+00  0.00000000E+00
  0.00000000E+00  0.00000000E+00  0.00000000E+00  0.00000000E+00  0.00000000E+00
  0.00000000E+00  0.00000000E+00  0.00000000E+00  0.00000000E+00  0.00000000E+00
  1.00000000E+00  0.00000000E+00  0.00000000E+00  0.00000000E+00  0.00000000E+00
  0.00000000E+00  0.00000000E+00  0.00000000E+00  0.00000000E+00  0.00000000E+00
  0.00000000E+00  0.00000000E+00  0.00000000E+00  0.00000000E+00  0.00000000E+00
  0.00000000E+00  0.00000000E+00  0.00000000E+00  0.00000000E+00  0.00000000E+00
  0.00000000E+00  0.00000000E+00  0.00000000E+00  0.00000000E+00  0.00000000E+00
  0.00000000E+00
Coordinates of each shell                  R   N=         207
  2.30344839E+00  3.08604820E+00  1.97215226E-31  2.30344839E+00  3.08604820E+00
  1.97215226E-31  2.30344839E+00  3.08604820E+00  1.97215226E-31  2.30344839E+00
  3.08604820E+00  1.97215226E-31  2.30344839E+00  3.08604820E+00  1.97215226E-31
  2.30344839E+00  3.08604820E+00  1.97215226E-31  2.29672433E+00  4.46872239E-01
  3.69778549E-32  2.29672433E+00  4.46872239E-01  3.69778549E-32  2.29672433E+00
  4.46872239E-01  3.69778549E-32  2.29672433E+00  4.46872239E-01  3.69778549E-32
  2.29672433E+00  4.46872239E-01  3.69778549E-32  2.29672433E+00  4.46872239E-01
  3.69778549E-32  3.20590255E-08 -8.28781245E-01 -7.39557099E-32  3.20590255E-08
 -8.28781245E-01 -7.39557099E-32  3.20590255E-08 -8.28781245E-01 -7.39557099E-32
  3.20590255E-08 -8.28781245E-01 -7.39557099E-32  3.20590255E-08 -8.28781245E-01
 -7.39557099E-32  3.20590255E-08 -8.28781245E-01 -7.39557099E-32 -2.29672434E+00
  4.46872260E-01  6.16297582E-32 -2.29672434E+00  4.46872260E-01  6.16297582E-32
 -2.29672434E+00  4.46872260E-01  6.16297582E-32 -2.29672434E+00  4.46872260E-01
  6.16297582E-32 -2.29672434E+00  4.46872260E-01  6.16297582E-32 -2.29672434E+00
  4.46872260E-01  6.16297582E-32 -2.30344818E+00  3.08604815E+00  1.97215226E-31
 -2.30344818E+00  3.08604815E+00  1.97215226E-31 -2.30344818E+00  3.08604815E+00
  1.97215226E-31 -2.30344818E+00  3.08604815E+00  1.97215226E-31 -2.30344818E+00
  3.08604815E+00  1.97215226E-31 -2.30344818E+00  3.08604815E+00  1.97215226E-31
  3.20590265E-08  4.28154954E+00  3.94430453E-31  3.20590265E-08  4.28154954E+00
  3.94430453E-31  3.20590265E-08  4.28154954E+00  3.94430453E-31  3.20590265E-08
  4.28154954E+00  3.94430453E-31  3.20590265E-08  4.28154954E+00  3.94430453E-31
  3.20590265E-08  4.28154954E+00  3.94430453E-31  4.07028301E+00  4.12038459E+00
  1.97215226E-31  4.07028301E+00  4.12038459E+00  1.97215226E-31  4.07028301E+00
  4.12038459E+00  1.97215226E-31  4.07028301E+00  4.12038459E+00  1.97215226E-31
  4.07028301E+00  4.12038459E+00  1.97215226E-31  4.04963861E+00 -6.09034202E-01
 -1.23259516E-31  4.04963861E+00 -6.09034202E-01 -1.23259516E-31  4.04963861E+00
 -6.09034202E-01 -1.23259516E-31  4.04963861E+00 -6.09034202E-01 -1.23259516E-31
  4.04963861E+00 -6.09034202E-01 -1.23259516E-31 -1.07716627E-07 -4.12555031E+00
 -2.95822839E-31 -1.07716627E-07 -4.12555031E+00 -2.95822839E-31 -1.07716627E-07
 -4.12555031E+00 -2.95822839E-31 -1.07716627E-07 -4.12555031E+00 -2.95822839E-31
 -1.07716627E-07 -4.12555031E+00 -2.95822839E-31 -1.07716627E-07 -4.12555031E+00
 -2.95822839E-31 -1.07716627E-07 -4.12555031E+00 -2.95822839E-31 -1.07716627E-07
 -4.12555031E+00 -2.95822839E-31 -1.07716627E-07 -4.12555031E+00 -2.95822839E-31
 -1.07716627E-07 -4.12555031E+00 -2.95822839E-31 -1.07716627E-07 -4.12555031E+00
 -2.95822839E-31 -1.07716627E-07 -4.12555031E+00 -2.95822839E-31 -1.07716627E-07
 -4.12555031E+00 -2.95822839E-31 -4.04963867E+00 -6.09034195E-01 -4.93038066E-32
 -4.04963867E+00 -6.09034195E-01 -4.93038066E-32 -4.04963867E+00 -6.09034195E-01
 -4.93038066E-32 -4.04963867E+00 -6.09034195E-01 -4.93038066E-32 -4.04963867E+00
 -6.09034195E-01 -4.93038066E-32 -4.07028273E+00  4.12038426E+00  2.95822839E-31
 -4.07028273E+00  4.12038426E+00  2.95822839E-31 -4.07028273E+00  4.12038426E+00
  2.95822839E-31 -4.07028273E+00  4.12038426E+00  2.95822839E-31 -4.07028273E+00
  4.12038426E+00  2.95822839E-31
Num ILSW                                   I              100
ILSW                                       I   N=         100
           1           0           0           0           2           0
           0           0           0           0        4336          -1
           5           0           0           0           2           0
           0           0           1           0           1           0
           1           0           0           0           0           0
           0           0      100000           0          -1           0
           0           0           0           0           0           0
           0           0           0           1           0           0
           0 -2000000000           1           0           0           0
           0           0           4          52           0           0
           0           0          55           0           0           0
           0           0           0           0           0           1
           0           0           0           0           0           0
           0           0           0           0           0           0
           0           0           0           0           0           0
           0           0           0           0           0           0
           0           0           0           0
Num RLSW                                   I               52
RLSW                                       R   N=          52
  1.00000000E+00  1.00000000E+00  1.00000000E+00  1.00000000E+00  5.40000000E-01
  0.00000000E+00  0.00000000E+00  1.00000000E+00  0.00000000E+00  0.00000000E+00
  0.00000000E+00  0.00000000E+00  1.00000000E+00  0.00000000E+00  0.00000000E+00
  0.00000000E+00  0.00000000E+00  1.00000000E+00  0.00000000E+00  0.00000000E+00
  0.00000000E+00  0.00000000E+00  1.00000000E+00  0.00000000E+00  0.00000000E+00
  0.00000000E+00  0.00000000E+00  1.00000000E+00  0.00000000E+00  0.00000000E+00
  0.00000000E+00  0.00000000E+00  1.00000000E+00  0.00000000E+00  0.00000000E+00
  0.00000000E+00  0.00000000E+00  0.00000000E+00  1.00000000E+00  1.00000000E+00
  0.00000000E+00  1.00000000E+00  0.00000000E+00  0.00000000E+00  0.00000000E+00
  0.00000000E+00  0.00000000E+00  0.00000000E+00  0.00000000E+00  0.00000000E+00
  0.00000000E+00  0.00000000E+00
MxBond                                     I                3
NBond                                      I   N=          11
           3           3           3           3           3           2
           1           1           1           1           1
IBond                                      I   N=          33
           2           6           7           1           3           8
           2           4           9           3           5          10
           4           6          11           1           5           0
           1           0           0           2           0           0
           3           0           0           4           0           0
           5           0           0
RBond                                      R   N=          33
  1.50000000E+00  1.50000000E+00  1.00000000E-01  1.50000000E+00  1.50000000E+00
  1.00000000E-01  1.50000000E+00  1.50000000E+00  1.00000000E+00  1.50000000E+00
  1.50000000E+00  1.00000000E-01  1.50000000E+00  1.50000000E+00  1.00000000E-01
  1.50000000E+00  1.50000000E+00  0.00000000E+00  1.00000000E-01  0.00000000E+00
  0.00000000E+00  1.00000000E-01  0.00000000E+00  0.00000000E+00  1.00000000E+00
  0.00000000E+00  0.00000000E+00  1.00000000E-01  0.00000000E+00  0.00000000E+00
  1.00000000E-01  0.00000000E+00  0.00000000E+00
Virial Ratio                               R      2.002736006628352E+00
SCF Energy                                 R     -6.911127321034608E+02
Total Energy                               R     -6.911127321034608E+02
S**2                                       R      7.625873617893220E-01
S**2 after annihilation                    R      7.500698983649502E-01
RMS Force                                  R      1.327773015903298E-04
RMS Density                                R      3.603512201585311E-09
NImag                                      I                0
Job Status                                 I                1
Nuclear derivative order                   I                2
External E-field                           R   N=          35
  0.00000000E+00  0.00000000E+00  0.00000000E+00  0.00000000E+00  0.00000000E+00
  0.00000000E+00  0.00000000E+00  0.00000000E+00  0.00000000E+00  0.00000000E+00
  0.00000000E+00  0.00000000E+00  0.00000000E+00  0.00000000E+00  0.00000000E+00