Neutral Radical (removed 1) _                                           
Freq      UM062X                                                      6-311++G(d,p)       
Number of atoms                            I               11
Info1-9                                    I   N=           9
           8           6        1002           0           0         100
           6          18       -5502
Full Title                                 C   N=           3
Neutral Radical (removed 1) _       
Route                                      C   N=           5
# opt freq 6-311++g(d,p) guess=read geom=allcheck m062x     
Charge                                     I                0
Multiplicity                               I                2
Number of electrons                        I               41
Number of alpha electrons                  I               21
Number of beta electrons                   I               20
Number of basis functions                  I              167
Number of independent functions            I              167
Number of point charges in /Mol/           I                0
Number of translation vectors              I                0
Atomic numbers                             I   N=          11
           6           6           6           6           6           6
           1           1           1           1           1
Nuclear charges                            R   N=          11
  6.00000000E+00  6.00000000E+00  6.00000000E+00  6.00000000E+00  6.00000000E+00
  6.00000000E+00  1.00000000E+00  1.00000000E+00  1.00000000E+00  1.00000000E+00
  1.00000000E+00
Current cartesian coordinates              R   N=          33
 -1.45117131E+00  2.30711667E+00 -1.47911420E-31  1.19082451E+00  2.28578260E+00
 -4.93038066E-32  2.49504160E+00  7.99274346E-48  1.59618967E-32  1.19082452E+00
 -2.28578259E+00  4.93038066E-32 -1.45117131E+00 -2.30711667E+00  0.00000000E+00
 -2.64021295E+00  6.66133815E-16 -1.16153888E-31 -2.49480607E+00  4.06903683E+00
 -2.95822839E-31  2.22127663E+00  4.05649479E+00 -9.86076132E-32  4.54224844E+00
  1.95050285E-47  1.09966838E-31  2.22127663E+00 -4.05649479E+00  4.93038066E-31
 -2.49480602E+00 -4.06903685E+00  9.86076132E-32
Number of symbols in /Mol/                 I                0
Force Field                                I                0
Atom Types                                 C   N=          11
                                                            
                                                            
            
Int Atom Types                             I   N=          11
           0           0           0           0           0           0
           0           0           0           0           0
MM charges                                 R   N=          11
  0.00000000E+00  0.00000000E+00  0.00000000E+00  0.00000000E+00  0.00000000E+00
  0.00000000E+00  0.00000000E+00  0.00000000E+00  0.00000000E+00  0.00000000E+00
  0.00000000E+00
Integer atomic weights                     I   N=          11
          12          12          12          12          12          12
           1           1           1           1           1
Real atomic weights                        R   N=          11
  1.20000000E+01  1.20000000E+01  1.20000000E+01  1.20000000E+01  1.20000000E+01
  1.20000000E+01  1.00782504E+00  1.00782504E+00  1.00782504E+00  1.00782504E+00
  1.00782504E+00
Atom fragment info                         I   N=          11
           0           0           0           0           0           0
           0           0           0           0           0
Atom residue num                           I   N=          11
           0           0           0           0           0           0
           0           0           0           0           0
Nuclear spins                              I   N=          11
           0           0           0           0           0           0
           1           1           1           1           1
Nuclear ZEff                               R   N=          11
 -3.60000000E+00 -3.60000000E+00 -3.60000000E+00 -3.60000000E+00 -3.60000000E+00
 -3.60000000E+00 -1.00000000E+00 -1.00000000E+00 -1.00000000E+00 -1.00000000E+00
 -1.00000000E+00
Nuclear ZNuc                               R   N=          11
  6.00000000E+00  6.00000000E+00  6.00000000E+00  6.00000000E+00  6.00000000E+00
  6.00000000E+00  1.00000000E+00  1.00000000E+00  1.00000000E+00  1.00000000E+00
  1.00000000E+00
Nuclear QMom                               R   N=          11
  0.00000000E+00  0.00000000E+00  0.00000000E+00  0.00000000E+00  0.00000000E+00
  0.00000000E+00  0.00000000E+00  0.00000000E+00  0.00000000E+00  0.00000000E+00
  0.00000000E+00
Nuclear GFac                               R   N=          11
  0.00000000E+00  0.00000000E+00  0.00000000E+00  0.00000000E+00  0.00000000E+00
  0.00000000E+00  2.79284600E+00  2.79284600E+00  2.79284600E+00  2.79284600E+00
  2.79284600E+00
MicOpt                                     I   N=          11
          -1          -1          -1          -1          -1          -1
          -1          -1          -1          -1          -1
Number of residues                         I                0
Number of secondary structures             I                0
Redundant internal dimensions              I   N=           4
          47          11          16          20
Redundant internal coordinate indices      I   N=         188
           1           2           0           0           1           6
           0           0           1           7           0           0
           2           3           0           0           2           8
           0           0           3           4           0           0
           3           9           0           0           4           5
           0           0           4          10           0           0
           5           6           0           0           5          11
           0           0           2           1           6           0
           2           1           7           0           6           1
           7           0           1           2           3           0
           1           2           8           0           3           2
           8           0           2           3           4           0
           2           3           9           0           4           3
           9           0           3           4           5           0
           3           4          10           0           5           4
          10           0           4           5           6           0
           4           5          11           0           6           5
          11           0           1           6           5           0
           6           1           2           3           6           1
           2           8           7           1           2           3
           7           1           2           8           2           1
           6           5           7           1           6           5
           1           2           3           4           1           2
           3           9           8           2           3           4
           8           2           3           9           2           3
           4           5           2           3           4          10
           9           3           4           5           9           3
           4          10           3           4           5           6
           3           4           5          11          10           4
           5           6          10           4           5          11
           4           5           6           1          11           5
           6           1
Redundant internal coordinates             R   N=          47
  2.64208195E+00  2.59549752E+00  2.04781254E+00  2.63168849E+00  2.04871990E+00
  2.63168848E+00  2.04720684E+00  2.64208197E+00  2.04871990E+00  2.59549751E+00
  2.04781253E+00  2.03859724E+00  2.11363041E+00  2.13095766E+00  2.09737575E+00
  2.08975738E+00  2.09605217E+00  2.10458341E+00  2.08930095E+00  2.08930094E+00
  2.09737575E+00  2.09605218E+00  2.08975737E+00  2.03859724E+00  2.11363038E+00
  2.13095769E+00  2.18984121E+00  0.00000000E+00  3.14159265E+00  3.14159265E+00
  0.00000000E+00 -0.00000000E+00  3.14159265E+00 -0.00000000E+00  3.14159265E+00
  3.14159265E+00 -0.00000000E+00 -0.00000000E+00  3.14159265E+00  3.14159265E+00
  0.00000000E+00  0.00000000E+00  3.14159265E+00  3.14159265E+00 -0.00000000E+00
  0.00000000E+00  3.14159265E+00
ZRed-IntVec                                I   N=          47
           0           0           0           0           0           0
           0           0           0           0           0           0
           0           0           0           0           0           0
           0           0           0           0           0           0
           0           0           0           0           0           0
           0           0           0           0           0           0
           0           0           0           0           0           0
           0           0           0           0           0
ZRed-FPVec                                 R   N=          47
  0.00000000E+00  0.00000000E+00  0.00000000E+00  0.00000000E+00  0.00000000E+00
  0.00000000E+00  0.00000000E+00  0.00000000E+00  0.00000000E+00  0.00000000E+00
  0.00000000E+00  0.00000000E+00  0.00000000E+00  0.00000000E+00  0.00000000E+00
  0.00000000E+00  0.00000000E+00  0.00000000E+00  0.00000000E+00  0.00000000E+00
  0.00000000E+00  0.00000000E+00  0.00000000E+00  0.00000000E+00  0.00000000E+00
  0.00000000E+00  0.00000000E+00  0.00000000E+00  0.00000000E+00  0.00000000E+00
  0.00000000E+00  0.00000000E+00  0.00000000E+00  0.00000000E+00  0.00000000E+00
  0.00000000E+00  0.00000000E+00  0.00000000E+00  0.00000000E+00  0.00000000E+00
  0.00000000E+00  0.00000000E+00  0.00000000E+00  0.00000000E+00  0.00000000E+00
  0.00000000E+00  0.00000000E+00
ZRed-Constraint1                           R   N=          47
  2.64208195E+00  2.59549753E+00  2.04781254E+00  2.63168848E+00  2.04871990E+00
  2.63168849E+00  2.04720684E+00  2.64208197E+00  2.04871990E+00  2.59549750E+00
  2.04781253E+00  2.03859724E+00  2.11363041E+00  2.13095766E+00  2.09737576E+00
  2.08975738E+00  2.09605217E+00  2.10458341E+00  2.08930096E+00  2.08930094E+00
  2.09737575E+00  2.09605218E+00  2.08975737E+00  2.03859724E+00  2.11363038E+00
  2.13095768E+00  2.18984121E+00  0.00000000E+00  3.14159265E+00  3.14159265E+00
 -0.00000000E+00 -0.00000000E+00  3.14159265E+00 -0.00000000E+00  3.14159265E+00
  3.14159265E+00  0.00000000E+00 -0.00000000E+00  3.14159265E+00  3.14159265E+00
  0.00000000E+00 -0.00000000E+00  3.14159265E+00  3.14159265E+00 -0.00000000E+00
  0.00000000E+00  3.14159265E+00
ZRed-Constraint2                           R   N=          47
  2.66076077E+00  2.59068263E+00  2.07135304E+00  2.65055239E+00  2.07550773E+00
  2.65055210E+00  2.07851445E+00  2.66076085E+00  2.07550859E+00  2.59068252E+00
  2.07134610E+00  2.00530438E+00  2.13373356E+00  2.14414736E+00  2.09167028E+00
  2.09290944E+00  2.09860558E+00  2.11992189E+00  2.08163166E+00  2.08163175E+00
  2.09167033E+00  2.09860576E+00  2.09290922E+00  2.00530438E+00  2.13373326E+00
  2.14414766E+00  2.25249934E+00 -0.00000000E+00  3.14159265E+00  3.14159265E+00
  0.00000000E+00  0.00000000E+00  3.14159265E+00  0.00000000E+00  3.14159265E+00
  3.14159265E+00 -0.00000000E+00 -0.00000000E+00  3.14159265E+00  3.14159265E+00
  0.00000000E+00  0.00000000E+00  3.14159265E+00  3.14159265E+00  0.00000000E+00
 -0.00000000E+00  3.14159265E+00
SymInf integers                            I   N=          26
           1           2           1           1           1           1
           1          -1           0           0           0           0
           0           0           0           0           0           0
           0           0           0           0           0           0
           0           0
RotTr to input orientation                 R   N=          12
  8.51968501E-01  5.23593042E-01  2.24963967E-32 -5.23593042E-01  8.51968501E-01
  1.22464680E-16  6.41216544E-17 -1.04336050E-16  1.00000000E+00 -3.52191186E+00
 -7.61035256E-01 -2.81371483E-21
Number of contracted shells                I               61
Number of primitive shells                 I              113
Pure/Cartesian d shells                    I                0
Pure/Cartesian f shells                    I                0
Highest angular momentum                   I                2
Largest degree of contraction              I                6
Shell types                                I   N=          61
           0          -1          -1          -1          -1          -2
           0          -1          -1          -1          -1          -2
           0          -1          -1          -1          -1          -2
           0          -1          -1          -1          -1          -2
           0          -1          -1          -1          -1          -2
           0          -1          -1          -1          -1          -2
           0           0           0           0           1           0
           0           0           0           1           0           0
           0           0           1           0           0           0
           0           1           0           0           0           0
           1
Number of primitives per shell             I   N=          61
           6           3           1           1           1           1
           6           3           1           1           1           1
           6           3           1           1           1           1
           6           3           1           1           1           1
           6           3           1           1           1           1
           6           3           1           1           1           1
           3           1           1           1           1           3
           1           1           1           1           3           1
           1           1           1           3           1           1
           1           1           3           1           1           1
           1
Shell to atom map                          I   N=          61
           1           1           1           1           1           1
           2           2           2           2           2           2
           3           3           3           3           3           3
           4           4           4           4           4           4
           5           5           5           5           5           5
           6           6           6           6           6           6
           7           7           7           7           7           8
           8           8           8           8           9           9
           9           9           9          10          10          10
          10          10          11          11          11          11
          11
Primitive exponents                        R   N=         113
  4.56324000E+03  6.82024000E+02  1.54973000E+02  4.44553000E+01  1.30290000E+01
  1.82773000E+00  2.09642000E+01  4.80331000E+00  1.45933000E+00  4.83456000E-01
  1.45585000E-01  4.38000000E-02  6.26000000E-01  4.56324000E+03  6.82024000E+02
  1.54973000E+02  4.44553000E+01  1.30290000E+01  1.82773000E+00  2.09642000E+01
  4.80331000E+00  1.45933000E+00  4.83456000E-01  1.45585000E-01  4.38000000E-02
  6.26000000E-01  4.56324000E+03  6.82024000E+02  1.54973000E+02  4.44553000E+01
  1.30290000E+01  1.82773000E+00  2.09642000E+01  4.80331000E+00  1.45933000E+00
  4.83456000E-01  1.45585000E-01  4.38000000E-02  6.26000000E-01  4.56324000E+03
  6.82024000E+02  1.54973000E+02  4.44553000E+01  1.30290000E+01  1.82773000E+00
  2.09642000E+01  4.80331000E+00  1.45933000E+00  4.83456000E-01  1.45585000E-01
  4.38000000E-02  6.26000000E-01  4.56324000E+03  6.82024000E+02  1.54973000E+02
  4.44553000E+01  1.30290000E+01  1.82773000E+00  2.09642000E+01  4.80331000E+00
  1.45933000E+00  4.83456000E-01  1.45585000E-01  4.38000000E-02  6.26000000E-01
  4.56324000E+03  6.82024000E+02  1.54973000E+02  4.44553000E+01  1.30290000E+01
  1.82773000E+00  2.09642000E+01  4.80331000E+00  1.45933000E+00  4.83456000E-01
  1.45585000E-01  4.38000000E-02  6.26000000E-01  3.38650000E+01  5.09479000E+00
  1.15879000E+00  3.25840000E-01  1.02741000E-01  3.60000000E-02  7.50000000E-01
  3.38650000E+01  5.09479000E+00  1.15879000E+00  3.25840000E-01  1.02741000E-01
  3.60000000E-02  7.50000000E-01  3.38650000E+01  5.09479000E+00  1.15879000E+00
  3.25840000E-01  1.02741000E-01  3.60000000E-02  7.50000000E-01  3.38650000E+01
  5.09479000E+00  1.15879000E+00  3.25840000E-01  1.02741000E-01  3.60000000E-02
  7.50000000E-01  3.38650000E+01  5.09479000E+00  1.15879000E+00  3.25840000E-01
  1.02741000E-01  3.60000000E-02  7.50000000E-01
Contraction coefficients                   R   N=         113
  1.96665025E-03  1.52306019E-02  7.61269097E-02  2.60801033E-01  6.16462078E-01
  2.21006028E-01  1.14660081E-01  9.19999648E-01 -3.03068213E-03  1.00000000E+00
  1.00000000E+00  1.00000000E+00  1.00000000E+00  1.96665025E-03  1.52306019E-02
  7.61269097E-02  2.60801033E-01  6.16462078E-01  2.21006028E-01  1.14660081E-01
  9.19999648E-01 -3.03068213E-03  1.00000000E+00  1.00000000E+00  1.00000000E+00
  1.00000000E+00  1.96665025E-03  1.52306019E-02  7.61269097E-02  2.60801033E-01
  6.16462078E-01  2.21006028E-01  1.14660081E-01  9.19999648E-01 -3.03068213E-03
  1.00000000E+00  1.00000000E+00  1.00000000E+00  1.00000000E+00  1.96665025E-03
  1.52306019E-02  7.61269097E-02  2.60801033E-01  6.16462078E-01  2.21006028E-01
  1.14660081E-01  9.19999648E-01 -3.03068213E-03  1.00000000E+00  1.00000000E+00
  1.00000000E+00  1.00000000E+00  1.96665025E-03  1.52306019E-02  7.61269097E-02
  2.60801033E-01  6.16462078E-01  2.21006028E-01  1.14660081E-01  9.19999648E-01
 -3.03068213E-03  1.00000000E+00  1.00000000E+00  1.00000000E+00  1.00000000E+00
  1.96665025E-03  1.52306019E-02  7.61269097E-02  2.60801033E-01  6.16462078E-01
  2.21006028E-01  1.14660081E-01  9.19999648E-01 -3.03068213E-03  1.00000000E+00
  1.00000000E+00  1.00000000E+00  1.00000000E+00  2.54938145E-02  1.90373109E-01
  8.52161486E-01  1.00000000E+00  1.00000000E+00  1.00000000E+00  1.00000000E+00
  2.54938145E-02  1.90373109E-01  8.52161486E-01  1.00000000E+00  1.00000000E+00
  1.00000000E+00  1.00000000E+00  2.54938145E-02  1.90373109E-01  8.52161486E-01
  1.00000000E+00  1.00000000E+00  1.00000000E+00  1.00000000E+00  2.54938145E-02
  1.90373109E-01  8.52161486E-01  1.00000000E+00  1.00000000E+00  1.00000000E+00
  1.00000000E+00  2.54938145E-02  1.90373109E-01  8.52161486E-01  1.00000000E+00
  1.00000000E+00  1.00000000E+00  1.00000000E+00
P(S=P) Contraction coefficients            R   N=         113
  0.00000000E+00  0.00000000E+00  0.00000000E+00  0.00000000E+00  0.00000000E+00
  0.00000000E+00  4.02486927E-02  2.37593957E-01  8.15853851E-01  1.00000000E+00
  1.00000000E+00  1.00000000E+00  0.00000000E+00  0.00000000E+00  0.00000000E+00
  0.00000000E+00  0.00000000E+00  0.00000000E+00  0.00000000E+00  4.02486927E-02
  2.37593957E-01  8.15853851E-01  1.00000000E+00  1.00000000E+00  1.00000000E+00
  0.00000000E+00  0.00000000E+00  0.00000000E+00  0.00000000E+00  0.00000000E+00
  0.00000000E+00  0.00000000E+00  4.02486927E-02  2.37593957E-01  8.15853851E-01
  1.00000000E+00  1.00000000E+00  1.00000000E+00  0.00000000E+00  0.00000000E+00
  0.00000000E+00  0.00000000E+00  0.00000000E+00  0.00000000E+00  0.00000000E+00
  4.02486927E-02  2.37593957E-01  8.15853851E-01  1.00000000E+00  1.00000000E+00
  1.00000000E+00  0.00000000E+00  0.00000000E+00  0.00000000E+00  0.00000000E+00
  0.00000000E+00  0.00000000E+00  0.00000000E+00  4.02486927E-02  2.37593957E-01
  8.15853851E-01  1.00000000E+00  1.00000000E+00  1.00000000E+00  0.00000000E+00
  0.00000000E+00  0.00000000E+00  0.00000000E+00  0.00000000E+00  0.00000000E+00
  0.00000000E+00  4.02486927E-02  2.37593957E-01  8.15853851E-01  1.00000000E+00
  1.00000000E+00  1.00000000E+00  0.00000000E+00  0.00000000E+00  0.00000000E+00
  0.00000000E+00  0.00000000E+00  0.00000000E+00  0.00000000E+00  0.00000000E+00
  0.00000000E+00  0.00000000E+00  0.00000000E+00  0.00000000E+00  0.00000000E+00
  0.00000000E+00  0.00000000E+00  0.00000000E+00  0.00000000E+00  0.00000000E+00
  0.00000000E+00  0.00000000E+00  0.00000000E+00  0.00000000E+00  0.00000000E+00
  0.00000000E+00  0.00000000E+00  0.00000000E+00  0.00000000E+00  0.00000000E+00
  0.00000000E+00  0.00000000E+00  0.00000000E+00  0.00000000E+00  0.00000000E+00
  0.00000000E+00  0.00000000E+00  0.00000000E+00
Coordinates of each shell                  R   N=         183
 -1.45117131E+00  2.30711667E+00 -9.86076132E-32 -1.45117131E+00  2.30711667E+00
 -9.86076132E-32 -1.45117131E+00  2.30711667E+00 -9.86076132E-32 -1.45117131E+00
  2.30711667E+00 -9.86076132E-32 -1.45117131E+00  2.30711667E+00 -9.86076132E-32
 -1.45117131E+00  2.30711667E+00 -9.86076132E-32  1.19082451E+00  2.28578260E+00
 -4.93038066E-32  1.19082451E+00  2.28578260E+00 -4.93038066E-32  1.19082451E+00
  2.28578260E+00 -4.93038066E-32  1.19082451E+00  2.28578260E+00 -4.93038066E-32
  1.19082451E+00  2.28578260E+00 -4.93038066E-32  1.19082451E+00  2.28578260E+00
 -4.93038066E-32  2.49504160E+00  7.15682815E-48  9.13613017E-33  2.49504160E+00
  7.15682815E-48  9.13613017E-33  2.49504160E+00  7.15682815E-48  9.13613017E-33
  2.49504160E+00  7.15682815E-48  9.13613017E-33  2.49504160E+00  7.15682815E-48
  9.13613017E-33  2.49504160E+00  7.15682815E-48  9.13613017E-33  1.19082452E+00
 -2.28578259E+00  4.93038066E-32  1.19082452E+00 -2.28578259E+00  4.93038066E-32
  1.19082452E+00 -2.28578259E+00  4.93038066E-32  1.19082452E+00 -2.28578259E+00
  4.93038066E-32  1.19082452E+00 -2.28578259E+00  4.93038066E-32  1.19082452E+00
 -2.28578259E+00  4.93038066E-32 -1.45117131E+00 -2.30711667E+00  0.00000000E+00
 -1.45117131E+00 -2.30711667E+00  0.00000000E+00 -1.45117131E+00 -2.30711667E+00
  0.00000000E+00 -1.45117131E+00 -2.30711667E+00  0.00000000E+00 -1.45117131E+00
 -2.30711667E+00  0.00000000E+00 -1.45117131E+00 -2.30711667E+00  0.00000000E+00
 -2.64021295E+00  4.44089210E-16 -6.18400306E-32 -2.64021295E+00  4.44089210E-16
 -6.18400306E-32 -2.64021295E+00  4.44089210E-16 -6.18400306E-32 -2.64021295E+00
  4.44089210E-16 -6.18400306E-32 -2.64021295E+00  4.44089210E-16 -6.18400306E-32
 -2.64021295E+00  4.44089210E-16 -6.18400306E-32 -2.49480607E+00  4.06903683E+00
 -1.97215226E-31 -2.49480607E+00  4.06903683E+00 -1.97215226E-31 -2.49480607E+00
  4.06903683E+00 -1.97215226E-31 -2.49480607E+00  4.06903683E+00 -1.97215226E-31
 -2.49480607E+00  4.06903683E+00 -1.97215226E-31  2.22127663E+00  4.05649479E+00
 -9.86076132E-32  2.22127663E+00  4.05649479E+00 -9.86076132E-32  2.22127663E+00
  4.05649479E+00 -9.86076132E-32  2.22127663E+00  4.05649479E+00 -9.86076132E-32
  2.22127663E+00  4.05649479E+00 -9.86076132E-32  4.54224844E+00  1.30290572E-47
  5.70865196E-32  4.54224844E+00  1.30290572E-47  5.70865196E-32  4.54224844E+00
  1.30290572E-47  5.70865196E-32  4.54224844E+00  1.30290572E-47  5.70865196E-32
  4.54224844E+00  1.30290572E-47  5.70865196E-32  2.22127663E+00 -4.05649479E+00
  2.95822839E-31  2.22127663E+00 -4.05649479E+00  2.95822839E-31  2.22127663E+00
 -4.05649479E+00  2.95822839E-31  2.22127663E+00 -4.05649479E+00  2.95822839E-31
  2.22127663E+00 -4.05649479E+00  2.95822839E-31 -2.49480602E+00 -4.06903685E+00
  9.86076132E-32 -2.49480602E+00 -4.06903685E+00  9.86076132E-32 -2.49480602E+00
 -4.06903685E+00  9.86076132E-32 -2.49480602E+00 -4.06903685E+00  9.86076132E-32
 -2.49480602E+00 -4.06903685E+00  9.86076132E-32
Num ILSW                                   I              100
ILSW                                       I   N=         100
           1           0           0           0           2           0
           0           0           0           0        4336          -1
           5           0           0           0           2           0
           0           0           1           0           1           0
           1           0           0           0           0           0
           0           0      100000           0          -1           0
           0           0           0           0           0           0
           0           0           0           1           0           0
           0 -2000000000           1           0           0           0
           0           0           4          52           0           0
           0           0          55           0           0           0
           0           0           0           0           0           1
           0           0           0           0           0           0
           0           0           0           0           0           0
           0           0           0           0           0           0
           0           0           0           0           0           0
           0           0           0           0
Num RLSW                                   I               52
RLSW                                       R   N=          52
  1.00000000E+00  1.00000000E+00  1.00000000E+00  1.00000000E+00  5.40000000E-01
  0.00000000E+00  0.00000000E+00  1.00000000E+00  0.00000000E+00  0.00000000E+00
  0.00000000E+00  0.00000000E+00  1.00000000E+00  0.00000000E+00  0.00000000E+00
  0.00000000E+00  0.00000000E+00  1.00000000E+00  0.00000000E+00  0.00000000E+00
  0.00000000E+00  0.00000000E+00  1.00000000E+00  0.00000000E+00  0.00000000E+00
  0.00000000E+00  0.00000000E+00  1.00000000E+00  0.00000000E+00  0.00000000E+00
  0.00000000E+00  0.00000000E+00  1.00000000E+00  0.00000000E+00  0.00000000E+00
  0.00000000E+00  0.00000000E+00  0.00000000E+00  1.00000000E+00  1.00000000E+00
  0.00000000E+00  1.00000000E+00  0.00000000E+00  0.00000000E+00  0.00000000E+00
  0.00000000E+00  0.00000000E+00  0.00000000E+00  0.00000000E+00  0.00000000E+00
  0.00000000E+00  0.00000000E+00
MxBond                                     I                3
NBond                                      I   N=          11
           3           3           3           3           3           2
           1           1           1           1           1
IBond                                      I   N=          33
           2           6           7           1           3           8
           2           4           9           3           5          10
           4           6          11           1           5           0
           1           0           0           2           0           0
           3           0           0           4           0           0
           5           0           0
RBond                                      R   N=          33
  1.50000000E+00  1.50000000E+00  1.00000000E-01  1.50000000E+00  1.50000000E+00
  1.00000000E-01  1.50000000E+00  1.50000000E+00  1.00000000E-01  1.50000000E+00
  1.50000000E+00  1.00000000E-01  1.50000000E+00  1.50000000E+00  1.00000000E-01
  1.50000000E+00  1.50000000E+00  0.00000000E+00  1.00000000E-01  0.00000000E+00
  0.00000000E+00  1.00000000E-01  0.00000000E+00  0.00000000E+00  1.00000000E-01
  0.00000000E+00  0.00000000E+00  1.00000000E-01  0.00000000E+00  0.00000000E+00
  1.00000000E-01  0.00000000E+00  0.00000000E+00
Virial Ratio                               R      2.004113426502295E+00
SCF Energy                                 R     -2.315127451897368E+02
Total Energy                               R     -2.315127451897368E+02
S**2                                       R      7.621298472276834E-01
S**2 after annihilation                    R      7.500672707008557E-01
RMS Force                                  R      2.100028151703649E-05
RMS Density                                R      3.469617803388643E-09
NImag                                      I                0
Job Status                                 I                1
Nuclear derivative order                   I                2
External E-field                           R   N=          35
  0.00000000E+00  0.00000000E+00  0.00000000E+00  0.00000000E+00  0.00000000E+00
  0.00000000E+00  0.00000000E+00  0.00000000E+00  0.00000000E+00  0.00000000E+00
  0.00000000E+00  0.00000000E+00  0.00000000E+00  0.00000000E+00  0.00000000E+00
  0.00000000E+00  0.00000000E+00  0.00000000E+00  0.00000000E+00  0.00000000E+00
  0.00000000E+00  0.00000000E+00  0.00000000E+00  0.00000000E+00  0.00000000E+00
  0.00000000E+00  0.00000000E+00  0.00000000E+00  0.00000000E+00  0.00000000E+00
  0.00000000E+00  0.00000000E+00  0.00000000E+00  0.00000000E+00  0.00000000E+00
IOpCl                                      I                1
IROHF                                      I                0
Alpha Orbital Energies                     R   N=         167
 -1.05704918E+01 -1.05557004E+01 -1.05556814E+01 -1.05541579E+01 -1.05541350E+01
 -1.05487684E+01 -9.74587468E-01 -8.56656134E-01 -8.48001073E-01 -6.99904540E-01
 -6.82854791E-01 -6.01549149E-01 -5.30925877E-01 -5.28347341E-01 -5.03629721E-01
 -4.60668790E-01 -4.52269860E-01 -4.21234659E-01 -3.20984242E-01 -3.16982645E-01
 -3.05928074E-01 -7.09679718E-04  1.01094620E-02  1.09480433E-02  1.53141270E-02
  1.54918830E-02  3.31170970E-02  3.94365775E-02  6.95368080E-02  8.15426852E-02
  9.14408261E-02  9.48655651E-02  9.87627802E-02  1.05232245E-01  1.31527449E-01
  1.31901586E-01  1.35924483E-01  1.37628892E-01  1.42712828E-01  1.42962422E-01
  1.43525270E-01  1.52242875E-01  1.59236188E-01  1.60160558E-01  1.64890625E-01
  1.68618381E-01  1.99674790E-01  2.00378288E-01  2.25350866E-01  2.27042730E-01
  2.27097601E-01  2.52961150E-01  2.57079012E-01  2.67587471E-01  3.01828348E-01
  3.03332592E-01  3.22645772E-01  3.26626772E-01  3.68881295E-01  3.79784827E-01
  3.85977896E-01  3.99140520E-01  4.79391881E-01  5.07890013E-01  5.54717674E-01