 Entering Gaussian System, Link 0=g16
 Initial command:
 /share/software/user/restricted/gaussian/g16.B01/l1.exe "/home/users/jlapier/Chloroaromatics/Gau-18153.inp" -scrdir="/home/users/jlapier/Chloroaromatics/"
 Entering Link 1 = /share/software/user/restricted/gaussian/g16.B01/l1.exe PID=     18154.
  
 Copyright (c) 1988-2017, Gaussian, Inc.  All Rights Reserved.
  
 This is part of the Gaussian(R) 16 program.  It is based on
 the Gaussian(R) 09 system (copyright 2009, Gaussian, Inc.),
 the Gaussian(R) 03 system (copyright 2003, Gaussian, Inc.),
 the Gaussian(R) 98 system (copyright 1998, Gaussian, Inc.),
 the Gaussian(R) 94 system (copyright 1995, Gaussian, Inc.),
 the Gaussian 92(TM) system (copyright 1992, Gaussian, Inc.),
 the Gaussian 90(TM) system (copyright 1990, Gaussian, Inc.),
 the Gaussian 88(TM) system (copyright 1988, Gaussian, Inc.),
 the Gaussian 86(TM) system (copyright 1986, Carnegie Mellon
 University), and the Gaussian 82(TM) system (copyright 1983,
 Carnegie Mellon University). Gaussian is a federally registered
 trademark of Gaussian, Inc.
  
 This software contains proprietary and confidential information,
 including trade secrets, belonging to Gaussian, Inc.
  
 This software is provided under written license and may be
 used, copied, transmitted, or stored only in accord with that
 written license.
  
 The following legend is applicable only to US Government
 contracts under FAR:
  
                    RESTRICTED RIGHTS LEGEND
  
 Use, reproduction and disclosure by the US Government is
 subject to restrictions as set forth in subparagraphs (a)
 and (c) of the Commercial Computer Software - Restricted
 Rights clause in FAR 52.227-19.
  
 Gaussian, Inc.
 340 Quinnipiac St., Bldg. 40, Wallingford CT 06492
  
  
 ---------------------------------------------------------------
 Warning -- This program may not be used in any manner that
 competes with the business of Gaussian, Inc. or will provide
 assistance to any competitor of Gaussian, Inc.  The licensee
 of this program is prohibited from giving any competitor of
 Gaussian, Inc. access to this program.  By using this program,
 the user acknowledges that Gaussian, Inc. is engaged in the
 business of creating and licensing software in the field of
 computational chemistry and represents and warrants to the
 licensee that it is not a competitor of Gaussian, Inc. and that
 it will not use this program in any manner prohibited above.
 ---------------------------------------------------------------
  

 Cite this work as:
 Gaussian 16, Revision B.01,
 M. J. Frisch, G. W. Trucks, H. B. Schlegel, G. E. Scuseria, 
 M. A. Robb, J. R. Cheeseman, G. Scalmani, V. Barone, 
 G. A. Petersson, H. Nakatsuji, X. Li, M. Caricato, A. V. Marenich, 
 J. Bloino, B. G. Janesko, R. Gomperts, B. Mennucci, H. P. Hratchian, 
 J. V. Ortiz, A. F. Izmaylov, J. L. Sonnenberg, D. Williams-Young, 
 F. Ding, F. Lipparini, F. Egidi, J. Goings, B. Peng, A. Petrone, 
 T. Henderson, D. Ranasinghe, V. G. Zakrzewski, J. Gao, N. Rega, 
 G. Zheng, W. Liang, M. Hada, M. Ehara, K. Toyota, R. Fukuda, 
 J. Hasegawa, M. Ishida, T. Nakajima, Y. Honda, O. Kitao, H. Nakai, 
 T. Vreven, K. Throssell, J. A. Montgomery, Jr., J. E. Peralta, 
 F. Ogliaro, M. J. Bearpark, J. J. Heyd, E. N. Brothers, K. N. Kudin, 
 V. N. Staroverov, T. A. Keith, R. Kobayashi, J. Normand, 
 K. Raghavachari, A. P. Rendell, J. C. Burant, S. S. Iyengar, 
 J. Tomasi, M. Cossi, J. M. Millam, M. Klene, C. Adamo, R. Cammi, 
 J. W. Ochterski, R. L. Martin, K. Morokuma, O. Farkas, 
 J. B. Foresman, and D. J. Fox, Gaussian, Inc., Wallingford CT, 2016.
 
 ******************************************
 Gaussian 16:  ES64L-G16RevB.01 20-Dec-2017
                10-Dec-2025 
 ******************************************
 %mem=8GB
 %nprocshare=4
 Will use up to    4 processors via shared memory.
 %oldchk=geometry_chks/12-1_-ClBzNeutralRadical.chk
 %chk=frequency_chks/12-1_-ClBzNeutralRadical_Freq.chk
 Copying data from "geometry_chks/12-1_-ClBzNeutralRadical.chk" to current chk file "frequency_chks/12-1_-ClBzNeutralRadical_Freq.chk"
 IOpt=  2 FromEx=T IUOpen= 4 IOptOp= 5 NList=   0 IFRang= 0 IUIn= 4 IUOut= 2.
 -------------------------------------------------------
 # opt freq 6-311++g(d,p) guess=read geom=allcheck m062x
 -------------------------------------------------------
 1/18=20,19=15,26=3,29=7,38=1/1,3;
 2/9=110,12=2,40=1/2;
 3/5=4,6=6,7=1111,11=2,14=-4,25=1,30=1,71=1,74=-55,116=-2/1,2,3;
 4/5=1/1;
 5/5=2,38=6/2;
 6/7=2,8=2,9=2,10=2,28=1/1;
 7//1,2,3,16;
 1/18=20,19=15,26=3/3(2);
 2/9=110/2;
 99//99;
 2/9=110/2;
 3/5=4,6=6,7=1111,11=2,14=-2,25=1,30=1,71=1,74=-55/1,2,3;
 4/5=5,16=3,69=1/1;
 5/5=2,38=5/2;
 7//1,2,3,16;
 1/18=20,19=15,26=3/3(-5);
 2/9=110/2;
 6/7=2,8=2,9=2,10=2,19=2,28=1/1;
 99/9=1/99;
 Structure from the checkpoint file:  "frequency_chks/12-1_-ClBzNeutralRadical_Freq.chk"
 ------------------------------
 Neutral Radical (removed 2) 1_
 ------------------------------
 Charge =  0 Multiplicity = 2
 Redundant internal coordinates found in file.  (old form).
 C,0,-3.0164278769,0.1552230847,0.
 C,0,-1.9046210758,0.9550845484,0.
 C,0,-0.6744782725,0.2691606535,0.
 C,0,-0.6575025822,-1.1334366429,0.
 C,0,-1.8391885751,-1.8863225479,0.
 C,0,-3.0844815315,-1.2190999925,0.
 Cl,0,-4.545554569,-2.0578256833,0.
 H,0,-1.9656195646,2.0499055032,0.
 H,0,0.2677288804,0.8339729866,0.
 H,0,0.3090117902,-1.659749593,0.
 H,0,-1.801636623,-2.9846123167,0.
 Recover connectivity data from disk.

 GradGradGradGradGradGradGradGradGradGradGradGradGradGradGradGradGradGrad
 Berny optimization.
 Initialization pass.
                           ----------------------------
                           !    Initial Parameters    !
                           ! (Angstroms and Degrees)  !
 --------------------------                            --------------------------
 ! Name  Definition              Value          Derivative Info.                !
 --------------------------------------------------------------------------------
 ! R1    R(1,2)                  1.3696         estimate D2E/DX2                !
 ! R2    R(1,6)                  1.376          estimate D2E/DX2                !
 ! R3    R(2,3)                  1.4085         estimate D2E/DX2                !
 ! R4    R(2,8)                  1.0965         estimate D2E/DX2                !
 ! R5    R(3,4)                  1.4027         estimate D2E/DX2                !
 ! R6    R(3,9)                  1.0985         estimate D2E/DX2                !
 ! R7    R(4,5)                  1.4011         estimate D2E/DX2                !
 ! R8    R(4,10)                 1.1005         estimate D2E/DX2                !
 ! R9    R(5,6)                  1.4128         estimate D2E/DX2                !
 ! R10   R(5,11)                 1.0989         estimate D2E/DX2                !
 ! R11   R(6,7)                  1.6847         estimate D2E/DX2                !
 ! A1    A(2,1,6)              128.567          estimate D2E/DX2                !
 ! A2    A(1,2,3)              115.1239         estimate D2E/DX2                !
 ! A3    A(1,2,8)              122.5432         estimate D2E/DX2                !
 ! A4    A(3,2,8)              122.3329         estimate D2E/DX2                !
 ! A5    A(2,3,4)              119.8373         estimate D2E/DX2                !
 ! A6    A(2,3,9)              119.9152         estimate D2E/DX2                !
 ! A7    A(4,3,9)              120.2474         estimate D2E/DX2                !
 ! A8    A(3,4,5)              121.809          estimate D2E/DX2                !
 ! A9    A(3,4,10)             119.2638         estimate D2E/DX2                !
 ! A10   A(5,4,10)             118.9272         estimate D2E/DX2                !
 ! A11   A(4,5,6)              119.3154         estimate D2E/DX2                !
 ! A12   A(4,5,11)             120.5441         estimate D2E/DX2                !
 ! A13   A(6,5,11)             120.1405         estimate D2E/DX2                !
 ! A14   A(1,6,5)              115.3474         estimate D2E/DX2                !
 ! A15   A(1,6,7)              122.6927         estimate D2E/DX2                !
 ! A16   A(5,6,7)              121.9599         estimate D2E/DX2                !
 ! D1    D(6,1,2,3)              0.0            estimate D2E/DX2                !
 ! D2    D(6,1,2,8)            180.0            estimate D2E/DX2                !
 ! D3    D(2,1,6,5)              0.0            estimate D2E/DX2                !
 ! D4    D(2,1,6,7)            180.0            estimate D2E/DX2                !
 ! D5    D(1,2,3,4)              0.0            estimate D2E/DX2                !
 ! D6    D(1,2,3,9)            180.0            estimate D2E/DX2                !
 ! D7    D(8,2,3,4)            180.0            estimate D2E/DX2                !
 ! D8    D(8,2,3,9)              0.0            estimate D2E/DX2                !
 ! D9    D(2,3,4,5)              0.0            estimate D2E/DX2                !
 ! D10   D(2,3,4,10)           180.0            estimate D2E/DX2                !
 ! D11   D(9,3,4,5)            180.0            estimate D2E/DX2                !
 ! D12   D(9,3,4,10)             0.0            estimate D2E/DX2                !
 ! D13   D(3,4,5,6)              0.0            estimate D2E/DX2                !
 ! D14   D(3,4,5,11)           180.0            estimate D2E/DX2                !
 ! D15   D(10,4,5,6)           180.0            estimate D2E/DX2                !
 ! D16   D(10,4,5,11)            0.0            estimate D2E/DX2                !
 ! D17   D(4,5,6,1)              0.0            estimate D2E/DX2                !
 ! D18   D(4,5,6,7)            180.0            estimate D2E/DX2                !
 ! D19   D(11,5,6,1)           180.0            estimate D2E/DX2                !
 ! D20   D(11,5,6,7)             0.0            estimate D2E/DX2                !
 --------------------------------------------------------------------------------
 Trust Radius=3.00D-01 FncErr=1.00D-07 GrdErr=1.00D-06 EigMax=2.50D+02 EigMin=1.00D-04
 Number of steps in this run=     57 maximum allowed number of steps=    100.
 GradGradGradGradGradGradGradGradGradGradGradGradGradGradGradGradGradGrad

                          Input orientation:                          
 ---------------------------------------------------------------------
 Center     Atomic      Atomic             Coordinates (Angstroms)
 Number     Number       Type             X           Y           Z
 ---------------------------------------------------------------------
      1          6           0       -3.016428    0.155223   -0.000000
      2          6           0       -1.904621    0.955085   -0.000000
      3          6           0       -0.674478    0.269161   -0.000000
      4          6           0       -0.657503   -1.133437   -0.000000
      5          6           0       -1.839189   -1.886323   -0.000000
      6          6           0       -3.084482   -1.219100   -0.000000
      7         17           0       -4.545555   -2.057826   -0.000000
      8          1           0       -1.965620    2.049906   -0.000000
      9          1           0        0.267729    0.833973   -0.000000
     10          1           0        0.309012   -1.659750   -0.000000
     11          1           0       -1.801637   -2.984612   -0.000000
 ---------------------------------------------------------------------
                    Distance matrix (angstroms):
                    1          2          3          4          5
     1  C    0.000000
     2  C    1.369632   0.000000
     3  C    2.344720   1.408454   0.000000
     4  C    2.687968   2.432535   1.402700   0.000000
     5  C    2.356650   2.842160   2.450032   1.401149   0.000000
     6  C    1.376007   2.473691   2.832496   2.428490   1.412778
     7  Cl   2.689947   4.006514   4.516647   3.996429   2.711795
     8  H    2.166569   1.096519   2.199568   3.441633   3.938258
     9  H    3.353563   2.175723   1.098530   2.174110   3.440801
    10  H    3.788492   3.426008   2.165167   1.100525   2.160116
    11  H    3.366643   3.941043   3.443476   2.176211   1.098932
                    6          7          8          9         10
     6  C    0.000000
     7  Cl   1.684694   0.000000
     8  H    3.455177   4.850724   0.000000
     9  H    3.930957   5.615176   2.542899   0.000000
    10  H    3.421983   4.870860   4.351493   2.494064   0.000000
    11  H    2.182367   2.896208   5.037188   4.343255   2.492007
                   11
    11  H    0.000000
 Stoichiometry    C6H4Cl(2)
 Framework group  CS[SG(C6H4Cl)]
 Deg. of freedom    19
 Full point group                 CS      NOp   2
 Largest Abelian subgroup         CS      NOp   2
 Largest concise Abelian subgroup C1      NOp   1
                         Standard orientation:                         
 ---------------------------------------------------------------------
 Center     Atomic      Atomic             Coordinates (Angstroms)
 Number     Number       Type             X           Y           Z
 ---------------------------------------------------------------------
      1          6           0       -1.170836   -0.156185    0.000000
      2          6           0       -1.334811   -1.515966    0.000000
      3          6           0       -0.140374   -2.262332    0.000000
      4          6           0        1.096262   -1.600290    0.000000
      5          6           0        1.185370   -0.201977    0.000000
      6          6           0        0.000000    0.566684    0.000000
      7         17           0        0.029454    2.251121    0.000000
      8          1           0       -2.323131   -1.990915    0.000000
      9          1           0       -0.180335   -3.360135    0.000000
     10          1           0        2.023676   -2.192791    0.000000
     11          1           0        2.165412    0.295181    0.000000
 ---------------------------------------------------------------------
 Rotational constants (GHZ):           6.0714869           1.5718060           1.2485717
 Standard basis: 6-311++G(d,p) (5D, 7F)
 There are   149 symmetry adapted cartesian basis functions of A'  symmetry.
 There are    48 symmetry adapted cartesian basis functions of A"  symmetry.
 There are   142 symmetry adapted basis functions of A'  symmetry.
 There are    48 symmetry adapted basis functions of A"  symmetry.
   190 basis functions,   305 primitive gaussians,   197 cartesian basis functions
    29 alpha electrons       28 beta electrons
       nuclear repulsion energy       304.0742840000 Hartrees.
 NAtoms=   11 NActive=   11 NUniq=   11 SFac= 1.00D+00 NAtFMM=   60 NAOKFM=F Big=F
 Integral buffers will be    131072 words long.
 Raffenetti 2 integral format.
 Two-electron integral symmetry is turned on.
 One-electron integrals computed using PRISM.
 NBasis=   190 RedAO= T EigKep=  1.65D-06  NBF=   142    48
 NBsUse=   190 1.00D-06 EigRej= -1.00D+00 NBFU=   142    48
 Initial guess from the checkpoint file:  "frequency_chks/12-1_-ClBzNeutralRadical_Freq.chk"
 B after Tr=    -0.000000    0.000000    0.000000
         Rot=    1.000000    0.000000    0.000000    0.000000 Ang=   0.00 deg.
 Initial guess orbital symmetries:
 Alpha Orbitals:
       Occupied  (A') (A') (A') (A') (A') (A') (A') (A') (A') (A')
                 (A") (A') (A') (A") (A') (A') (A") (A") (A") (A")
                 (A') (A") (A') (A') (A') (A') (A') (A') (A')
       Virtual   (A') (A') (A') (A') (A') (A') (A') (A') (A') (A')
                 (A') (A') (A') (A') (A') (A') (A') (A') (A') (A')
                 (A') (A') (A') (A') (A') (A') (A') (A') (A') (A')
                 (A') (A') (A') (A') (A') (A') (A') (A') (A') (A')
                 (A') (A') (A') (A') (A') (A') (A') (A') (A') (A')
                 (A') (A') (A') (A') (A') (A') (A') (A') (A') (A')
                 (A') (A') (A') (A') (A') (A') (A') (A') (A') (A')
                 (A') (A') (A') (A') (A') (A') (A') (A') (A') (A')
                 (A') (A') (A') (A') (A') (A') (A') (A') (A') (A')
                 (A') (A') (A') (A') (A') (A') (A') (A') (A') (A')
                 (A') (A') (A') (A') (A') (A') (A') (A') (A') (A')
                 (A') (A') (A') (A') (A') (A') (A') (A') (A') (A')
                 (A") (A") (A") (A") (A") (A") (A") (A") (A") (A")
                 (A") (A") (A") (A") (A") (A") (A") (A") (A") (A")
                 (A") (A") (A") (A") (A") (A") (A") (A") (A") (A")
                 (A") (A") (A") (A") (A") (A") (A") (A") (A") (A")
                 (A")
 Beta  Orbitals:
       Occupied  (A') (A') (A') (A') (A') (A') (A') (A') (A') (A')
                 (A") (A') (A') (A") (A') (A") (A") (A') (A") (A")
                 (A') (A") (A') (A') (A') (A') (A') (A')
       Virtual   (A') (A') (A') (A') (A') (A') (A') (A') (A') (A')
                 (A') (A') (A') (A') (A') (A') (A') (A') (A') (A')
                 (A') (A') (A') (A') (A') (A') (A') (A') (A') (A')
                 (A') (A') (A') (A') (A') (A') (A') (A') (A') (A')
                 (A') (A') (A') (A') (A') (A') (A') (A') (A') (A')
                 (A') (A') (A') (A') (A') (A') (A') (A') (A') (A')
                 (A') (A') (A') (A') (A') (A') (A') (A') (A') (A')
                 (A') (A') (A') (A') (A') (A') (A') (A') (A') (A')
                 (A') (A') (A') (A') (A') (A') (A') (A') (A') (A')
                 (A') (A') (A') (A') (A') (A') (A') (A') (A') (A')
                 (A') (A') (A') (A') (A') (A') (A') (A') (A') (A')
                 (A') (A') (A') (A') (A') (A') (A') (A') (A') (A')
                 (A') (A") (A") (A") (A") (A") (A") (A") (A") (A")
                 (A") (A") (A") (A") (A") (A") (A") (A") (A") (A")
                 (A") (A") (A") (A") (A") (A") (A") (A") (A") (A")
                 (A") (A") (A") (A") (A") (A") (A") (A") (A") (A")
                 (A") (A")
 Initial guess <Sx>= 0.0000 <Sy>= 0.0000 <Sz>= 0.5000 <S**2>= 0.7721 S= 0.5110
 Keep R1 and R2 ints in memory in symmetry-blocked form, NReq=262273818.
 Requested convergence on RMS density matrix=1.00D-08 within 128 cycles.
 Requested convergence on MAX density matrix=1.00D-06.
 Requested convergence on             energy=1.00D-06.
 No special actions if energy rises.
 EnCoef did     6 forward-backward iterations
 SCF Done:  E(UM062X) =  -691.108074178     A.U. after   26 cycles
            NFock= 26  Conv=0.70D-08     -V/T= 2.0029
 <Sx>= 0.0000 <Sy>= 0.0000 <Sz>= 0.5000 <S**2>= 0.7625 S= 0.5062
 <L.S>=  0.00000000000    
 Annihilation of the first spin contaminant:
 S**2 before annihilation     0.7625,   after     0.7501

 **********************************************************************

            Population analysis using the SCF Density.

 **********************************************************************

 Orbital symmetries:
 Alpha Orbitals:
       Occupied  (A') (A') (A') (A') (A') (A') (A') (A') (A') (A")
                 (A') (A') (A') (A') (A') (A') (A') (A') (A') (A')
                 (A') (A") (A') (A') (A") (A') (A") (A') (A")
       Virtual   (A") (A') (A") (A') (A') (A') (A') (A") (A') (A')
                 (A") (A') (A") (A') (A') (A") (A') (A') (A') (A")
                 (A') (A") (A') (A') (A") (A') (A') (A') (A') (A")
                 (A') (A') (A') (A') (A') (A') (A') (A') (A') (A')
                 (A') (A') (A') (A') (A') (A') (A") (A') (A') (A")
                 (A') (A') (A') (A") (A") (A') (A') (A') (A") (A")
                 (A') (A") (A') (A') (A') (A') (A') (A') (A") (A')
                 (A') (A') (A') (A") (A') (A') (A') (A') (A') (A")
                 (A") (A') (A") (A") (A') (A') (A") (A') (A") (A')
                 (A') (A') (A') (A") (A') (A") (A') (A') (A") (A')
                 (A") (A') (A') (A') (A") (A") (A') (A") (A') (A')
                 (A') (A") (A') (A") (A') (A") (A") (A') (A') (A')
                 (A') (A') (A') (A') (A") (A') (A') (A') (A') (A')
                 (A') (A") (A") (A') (A") (A") (A') (A") (A') (A')
                 (A') (A') (A') (A') (A') (A') (A') (A') (A') (A')
                 (A') (A') (A') (A') (A') (A') (A') (A") (A') (A')
                 (A')
 Beta  Orbitals:
       Occupied  (A') (A') (A') (A') (A') (A') (A') (A') (A') (A")
                 (A') (A') (A') (A') (A') (A') (A') (A') (A') (A')
                 (A') (A") (A') (A') (A") (A') (A") (A")
       Virtual   (A') (A") (A') (A') (A") (A') (A') (A') (A") (A')
                 (A') (A") (A') (A") (A') (A') (A") (A') (A') (A')
                 (A") (A') (A") (A') (A') (A") (A') (A') (A') (A')
                 (A") (A') (A') (A') (A') (A') (A') (A') (A') (A')
                 (A') (A') (A') (A') (A') (A') (A') (A") (A') (A')
                 (A") (A') (A') (A') (A') (A") (A") (A') (A') (A")
                 (A") (A") (A') (A') (A') (A') (A') (A') (A') (A")
                 (A') (A') (A') (A') (A') (A") (A') (A') (A') (A')
                 (A") (A") (A') (A") (A") (A') (A') (A') (A") (A")
                 (A') (A') (A') (A') (A") (A") (A') (A') (A') (A")
                 (A') (A") (A') (A') (A') (A") (A") (A') (A') (A")
                 (A') (A') (A") (A') (A") (A') (A") (A") (A') (A')
                 (A') (A') (A') (A') (A') (A") (A') (A') (A') (A')
                 (A') (A') (A") (A") (A') (A") (A") (A') (A") (A')
                 (A') (A') (A') (A') (A') (A') (A') (A') (A') (A')
                 (A') (A') (A') (A') (A') (A') (A') (A') (A") (A')
                 (A') (A')
 The electronic state is 2-A'.
 Alpha  occ. eigenvalues -- -102.68557 -10.61959 -10.58505 -10.57303 -10.57088
 Alpha  occ. eigenvalues --  -10.56916 -10.56516  -9.82902  -7.55452  -7.54723
 Alpha  occ. eigenvalues --   -7.54720  -1.01748  -0.95548  -0.86206  -0.83870
 Alpha  occ. eigenvalues --   -0.71028  -0.68692  -0.60115  -0.55285  -0.54101
 Alpha  occ. eigenvalues --   -0.51698  -0.48607  -0.47223  -0.44213  -0.41328
 Alpha  occ. eigenvalues --   -0.38786  -0.33222  -0.31833  -0.30864
 Alpha virt. eigenvalues --   -0.00474  -0.00356   0.00489   0.00968   0.01867
 Alpha virt. eigenvalues --    0.03463   0.04455   0.06190   0.06799   0.07534
 Alpha virt. eigenvalues --    0.08651   0.09146   0.09354   0.09985   0.11963
 Alpha virt. eigenvalues --    0.12365   0.12882   0.13234   0.13534   0.13810
 Alpha virt. eigenvalues --    0.14226   0.14691   0.15058   0.15707   0.16485
 Alpha virt. eigenvalues --    0.16589   0.18528   0.18822   0.20630   0.20738
 Alpha virt. eigenvalues --    0.21550   0.22169   0.24098   0.24752   0.26308
 Alpha virt. eigenvalues --    0.26735   0.27808   0.28624   0.30204   0.31037
 Alpha virt. eigenvalues --    0.34659   0.35356   0.35937   0.38394   0.47226
 Alpha virt. eigenvalues --    0.47738   0.48407   0.49978   0.52673   0.55252
 Alpha virt. eigenvalues --    0.56464   0.57294   0.57956   0.59153   0.60918
 Alpha virt. eigenvalues --    0.61254   0.62124   0.63576   0.64010   0.64338
 Alpha virt. eigenvalues --    0.68822   0.70292   0.73697   0.75035   0.76913
 Alpha virt. eigenvalues --    0.80020   0.80891   0.86446   0.87445   0.87822
 Alpha virt. eigenvalues --    0.88324   0.89564   0.91441   0.92236   0.92318
 Alpha virt. eigenvalues --    0.93245   0.97095   0.99750   1.00784   1.02611
 Alpha virt. eigenvalues --    1.04243   1.07216   1.12686   1.15929   1.19773
 Alpha virt. eigenvalues --    1.23456   1.25858   1.27022   1.33991   1.38182
 Alpha virt. eigenvalues --    1.50041   1.53799   1.54538   1.58662   1.59509
 Alpha virt. eigenvalues --    1.60215   1.66142   1.67620   1.71948   1.74166
 Alpha virt. eigenvalues --    1.75573   1.80098   1.84203   1.89841   1.90554
 Alpha virt. eigenvalues --    1.94044   1.94955   1.96812   1.97206   2.01133
 Alpha virt. eigenvalues --    2.04341   2.05756   2.12262   2.24079   2.27323
 Alpha virt. eigenvalues --    2.32032   2.34206   2.36888   2.43100   2.44371
 Alpha virt. eigenvalues --    2.48240   2.52835   2.55308   2.60345   2.69450
 Alpha virt. eigenvalues --    2.69508   2.71649   2.73824   2.75350   2.77614
 Alpha virt. eigenvalues --    2.79502   2.81287   2.84039   2.85802   2.92413
 Alpha virt. eigenvalues --    2.93792   3.03295   3.11243   3.16093   3.27387
 Alpha virt. eigenvalues --    3.35610   3.40555   3.50760   3.54582   3.67643
 Alpha virt. eigenvalues --    3.91352   4.03762   4.10167   4.15005   4.78894
 Alpha virt. eigenvalues --    9.98571  23.52459  23.94730  24.00255  24.08117
 Alpha virt. eigenvalues --   24.14429  24.22532  25.93341  26.21953  26.71555
 Alpha virt. eigenvalues --  216.08670
  Beta  occ. eigenvalues -- -102.68528 -10.61990 -10.57545 -10.57243 -10.57107
  Beta  occ. eigenvalues --  -10.56835 -10.56542  -9.82889  -7.55380  -7.54729
  Beta  occ. eigenvalues --   -7.54699  -1.01151  -0.95095  -0.85368  -0.82810
  Beta  occ. eigenvalues --   -0.70318  -0.67532  -0.59198  -0.54591  -0.53285
  Beta  occ. eigenvalues --   -0.51278  -0.48033  -0.45905  -0.43813  -0.41263
  Beta  occ. eigenvalues --   -0.38461  -0.32337  -0.30327
  Beta virt. eigenvalues --   -0.06482  -0.00524  -0.00339   0.01117   0.01579
  Beta virt. eigenvalues --    0.02194   0.03530   0.05029   0.06135   0.06627
  Beta virt. eigenvalues --    0.06966   0.08685   0.09060   0.09063   0.10280
  Beta virt. eigenvalues --    0.12055   0.12485   0.12904   0.12979   0.13579
  Beta virt. eigenvalues --    0.13738   0.14384   0.14734   0.15123   0.15574
  Beta virt. eigenvalues --    0.16422   0.16773   0.18251   0.18540   0.20668
  Beta virt. eigenvalues --    0.21344   0.21631   0.22366   0.24208   0.24828
  Beta virt. eigenvalues --    0.25494   0.26619   0.27900   0.29042   0.30572
  Beta virt. eigenvalues --    0.31288   0.34778   0.35958   0.36039   0.39070
  Beta virt. eigenvalues --    0.47231   0.47675   0.48505   0.49848   0.52886
  Beta virt. eigenvalues --    0.55382   0.55514   0.57110   0.57975   0.58589
  Beta virt. eigenvalues --    0.59361   0.61011   0.62373   0.63647   0.64032
  Beta virt. eigenvalues --    0.64400   0.70155   0.70363   0.73720   0.74878
  Beta virt. eigenvalues --    0.76339   0.80380   0.80879   0.86197   0.87731
  Beta virt. eigenvalues --    0.87764   0.88519   0.89749   0.91563   0.92059
  Beta virt. eigenvalues --    0.92290   0.92904   0.97386   0.99377   1.00772
  Beta virt. eigenvalues --    1.02842   1.04751   1.07052   1.12774   1.16325
  Beta virt. eigenvalues --    1.20634   1.22564   1.26725   1.27978   1.34682
  Beta virt. eigenvalues --    1.39019   1.50489   1.54337   1.55620   1.58694
  Beta virt. eigenvalues --    1.60580   1.60743   1.66216   1.67911   1.72312
  Beta virt. eigenvalues --    1.75259   1.75619   1.80393   1.84641   1.90130
  Beta virt. eigenvalues --    1.90704   1.94470   1.95195   1.97456   1.97506
  Beta virt. eigenvalues --    2.01618   2.05002   2.05927   2.12765   2.24122
  Beta virt. eigenvalues --    2.27666   2.32120   2.34600   2.37692   2.43446
  Beta virt. eigenvalues --    2.44454   2.48915   2.52921   2.55480   2.60704
  Beta virt. eigenvalues --    2.69572   2.69748   2.71800   2.74281   2.75777
  Beta virt. eigenvalues --    2.77650   2.79580   2.81706   2.84007   2.86446
  Beta virt. eigenvalues --    2.92558   2.93592   3.06397   3.11303   3.16381
  Beta virt. eigenvalues --    3.27486   3.35969   3.40776   3.50805   3.55140
  Beta virt. eigenvalues --    3.68348   3.91689   4.03767   4.10300   4.15311
  Beta virt. eigenvalues --    4.79091   9.98576  23.52625  23.94807  24.00367
  Beta virt. eigenvalues --   24.08205  24.14578  24.23013  25.93346  26.21990
  Beta virt. eigenvalues --   26.71732 216.08713
          Condensed to atoms (all electrons):
               1          2          3          4          5          6
     1  C   10.736279  -0.400697   0.255181  -1.314219  -2.521629  -0.427827
     2  C   -0.400697  11.036309  -2.190090   2.342652  -4.937924   0.491500
     3  C    0.255181  -2.190090   8.066618  -1.568658   3.027464  -2.070237
     4  C   -1.314219   2.342652  -1.568658   7.422896  -1.548523   0.692842
     5  C   -2.521629  -4.937924   3.027464  -1.548523  15.295937  -3.932507
     6  C   -0.427827   0.491500  -2.070237   0.692842  -3.932507  12.217969
     7  Cl  -0.425310   0.031132   0.118348   0.087403   0.491639  -1.002659
     8  H    0.017337   0.439986  -0.023352   0.024849  -0.042546  -0.087242
     9  H   -0.010638  -0.029258   0.354568  -0.025286   0.020400   0.008553
    10  H    0.057947   0.028434  -0.064763   0.326263  -0.046977   0.040987
    11  H   -0.087314  -0.087314   0.098280  -0.026567   0.573791  -0.182354
               7          8          9         10         11
     1  C   -0.425310   0.017337  -0.010638   0.057947  -0.087314
     2  C    0.031132   0.439986  -0.029258   0.028434  -0.087314
     3  C    0.118348  -0.023352   0.354568  -0.064763   0.098280
     4  C    0.087403   0.024849  -0.025286   0.326263  -0.026567
     5  C    0.491639  -0.042546   0.020400  -0.046977   0.573791
     6  C   -1.002659  -0.087242   0.008553   0.040987  -0.182354
     7  Cl  17.352374  -0.004045   0.001760  -0.011287   0.032775
     8  H   -0.004045   0.477363   0.000807   0.001212  -0.000407
     9  H    0.001760   0.000807   0.466331  -0.000763   0.001674
    10  H   -0.011287   0.001212  -0.000763   0.465242  -0.007292
    11  H    0.032775  -0.000407   0.001674  -0.007292   0.482482
          Atomic-Atomic Spin Densities.
               1          2          3          4          5          6
     1  C    1.760146  -0.933889   0.308850  -0.437530   0.551413  -0.569359
     2  C   -0.933889   0.515687  -0.352470   0.384978  -0.290527   0.818724
     3  C    0.308850  -0.352470   0.299036  -0.234817   0.262070  -0.283204
     4  C   -0.437530   0.384978  -0.234817   0.249814  -0.385622   0.432914
     5  C    0.551413  -0.290527   0.262070  -0.385622   0.500229  -0.675321
     6  C   -0.569359   0.818724  -0.283204   0.432914  -0.675321   0.439589
     7  Cl  -0.050504  -0.026278   0.012546  -0.005691   0.065479  -0.001505
     8  H    0.007895   0.009910  -0.015406   0.001811  -0.002925  -0.007955
     9  H    0.020976  -0.020063   0.004507  -0.010575   0.012938  -0.013203
    10  H   -0.001051  -0.003983   0.004370   0.005917  -0.003372  -0.000683
    11  H    0.030815  -0.004957   0.000632  -0.028807   0.008704  -0.009930
               7          8          9         10         11
     1  C   -0.050504   0.007895   0.020976  -0.001051   0.030815
     2  C   -0.026278   0.009910  -0.020063  -0.003983  -0.004957
     3  C    0.012546  -0.015406   0.004507   0.004370   0.000632
     4  C   -0.005691   0.001811  -0.010575   0.005917  -0.028807
     5  C    0.065479  -0.002925   0.012938  -0.003372   0.008704
     6  C   -0.001505  -0.007955  -0.013203  -0.000683  -0.009930
     7  Cl   0.027136  -0.000786  -0.000050  -0.000379  -0.001795
     8  H   -0.000786   0.033054   0.001890  -0.000048   0.000032
     9  H   -0.000050   0.001890   0.009976  -0.000204   0.000125
    10  H   -0.000379  -0.000048  -0.000204   0.001945  -0.000232
    11  H   -0.001795   0.000032   0.000125  -0.000232   0.014641
 Mulliken charges and spin densities:
               1          2
     1  C    0.120890   0.687762
     2  C   -0.724730   0.097132
     3  C   -0.003359   0.006114
     4  C   -0.413651  -0.027608
     5  C   -0.379126   0.043067
     6  C    0.250973   0.130065
     7  Cl   0.327869   0.018173
     8  H    0.196039   0.027471
     9  H    0.211852   0.006317
    10  H    0.210997   0.002281
    11  H    0.202247   0.009226
 Sum of Mulliken charges =  -0.00000   1.00000
 Mulliken charges and spin densities with hydrogens summed into heavy atoms:
               1          2
     1  C    0.120890   0.687762
     2  C   -0.528692   0.124604
     3  C    0.208493   0.012431
     4  C   -0.202654  -0.025327
     5  C   -0.176879   0.052293
     6  C    0.250973   0.130065
     7  Cl   0.327869   0.018173
 Electronic spatial extent (au):  <R**2>=            879.4577
 Charge=             -0.0000 electrons
 Dipole moment (field-independent basis, Debye):
    X=              0.6171    Y=             -1.9558    Z=              0.0000  Tot=              2.0508
 Quadrupole moment (field-independent basis, Debye-Ang):
   XX=            -43.5255   YY=            -43.9760   ZZ=            -51.2654
   XY=              1.2601   XZ=              0.0000   YZ=              0.0000
 Traceless Quadrupole moment (field-independent basis, Debye-Ang):
   XX=              2.7302   YY=              2.2796   ZZ=             -5.0098
   XY=              1.2601   XZ=              0.0000   YZ=              0.0000
 Octapole moment (field-independent basis, Debye-Ang**2):
  XXX=              5.4645  YYY=             -3.6060  ZZZ=              0.0000  XYY=             -0.6662
  XXY=             -4.2495  XXZ=              0.0000  XZZ=              0.4098  YZZ=              7.6348
  YYZ=              0.0000  XYZ=              0.0000
 Hexadecapole moment (field-independent basis, Debye-Ang**3):
 XXXX=           -269.3036 YYYY=           -771.6708 ZZZZ=            -60.8276 XXXY=             -4.4432
 XXXZ=              0.0000 YYYX=            -10.3393 YYYZ=              0.0000 ZZZX=              0.0000
 ZZZY=              0.0000 XXYY=           -176.2503 XXZZ=            -65.4996 YYZZ=           -163.1896
 XXYZ=              0.0000 YYXZ=              0.0000 ZZXY=             -4.7147
 N-N= 3.040742840000D+02 E-N=-2.237460971039D+03  KE= 6.891021505027D+02
 Symmetry A'   KE= 6.368052083669D+02
 Symmetry A"   KE= 5.229694213583D+01
 Symmetry A'   SP= 1.000000000000D+00
 Symmetry A"   SP= 7.541217126876D-15
                          Isotropic Fermi Contact Couplings
        Atom                 a.u.       MegaHertz       Gauss      10(-4) cm-1
     1  C(13)              0.41741     469.25225     167.44087     156.52570
     2  C(13)              0.00373       4.19387       1.49648       1.39892
     3  C(13)              0.04867      54.71243      19.52276      18.25010
     4  C(13)             -0.00587      -6.60059      -2.35525      -2.20172
     5  C(13)              0.03249      36.52164      13.03183      12.18231
     6  C(13)             -0.01171     -13.16563      -4.69782      -4.39158
     7  Cl(35)             0.02346      10.28458       3.66979       3.43057
     8  H(1)               0.01236      55.25992      19.71811      18.43272
     9  H(1)               0.00265      11.85130       4.22884       3.95317
    10  H(1)               0.00078       3.50384       1.25026       1.16875
    11  H(1)               0.00434      19.42001       6.92954       6.47782
 --------------------------------------------------------
       Center         ----  Spin Dipole Couplings  ----
                      3XX-RR        3YY-RR        3ZZ-RR
 --------------------------------------------------------
     1   Atom        0.520346     -0.121329     -0.399017
     2   Atom       -0.002723      0.102354     -0.099632
     3   Atom        0.018575     -0.007992     -0.010583
     4   Atom        0.029133      0.023036     -0.052170
     5   Atom        0.027132     -0.021845     -0.005287
     6   Atom        0.095316      0.011279     -0.106595
     7   Atom       -0.023518      0.154459     -0.130941
     8   Atom       -0.005740      0.017754     -0.012013
     9   Atom       -0.004281      0.009817     -0.005535
    10   Atom        0.001411      0.001295     -0.002706
    11   Atom        0.008045     -0.003172     -0.004873
 --------------------------------------------------------
                        XY            XZ            YZ
 --------------------------------------------------------
     1   Atom       -0.704249      0.000000      0.000000
     2   Atom       -0.015439      0.000000      0.000000
     3   Atom       -0.045325      0.000000      0.000000
     4   Atom       -0.006562      0.000000      0.000000
     5   Atom       -0.027023      0.000000      0.000000
     6   Atom        0.065643      0.000000      0.000000
     7   Atom        0.092334      0.000000      0.000000
     8   Atom        0.011499      0.000000      0.000000
     9   Atom       -0.002377      0.000000      0.000000
    10   Atom       -0.000169      0.000000      0.000000
    11   Atom        0.003549      0.000000      0.000000
 --------------------------------------------------------


 ---------------------------------------------------------------------------------
              Anisotropic Spin Dipole Couplings in Principal Axis System
 ---------------------------------------------------------------------------------

       Atom             a.u.   MegaHertz   Gauss  10(-4) cm-1        Axes

              Baa    -0.5744   -77.076   -27.503   -25.710  0.5410  0.8410  0.0000
     1 C(13)  Bbb    -0.3990   -53.544   -19.106   -17.860  0.0000  0.0000  1.0000
              Bcc     0.9734   130.621    46.609    43.570  0.8410 -0.5410 -0.0000
 
              Baa    -0.0996   -13.370    -4.771    -4.460  0.0000  0.0000  1.0000
     2 C(13)  Bbb    -0.0049    -0.663    -0.237    -0.221  0.9898  0.1424  0.0000
              Bcc     0.1046    14.033     5.007     4.681 -0.1424  0.9898  0.0000
 
              Baa    -0.0419    -5.628    -2.008    -1.877  0.5995  0.8004  0.0000
     3 C(13)  Bbb    -0.0106    -1.420    -0.507    -0.474  0.0000  0.0000  1.0000
              Bcc     0.0525     7.048     2.515     2.351  0.8004 -0.5995 -0.0000
 
              Baa    -0.0522    -7.001    -2.498    -2.335  0.0000  0.0000  1.0000
     4 C(13)  Bbb     0.0188     2.529     0.903     0.844  0.5379  0.8430  0.0000
              Bcc     0.0333     4.471     1.595     1.491  0.8430 -0.5379 -0.0000
 
              Baa    -0.0338    -4.539    -1.620    -1.514  0.4053  0.9142  0.0000
     5 C(13)  Bbb    -0.0053    -0.710    -0.253    -0.237  0.0000  0.0000  1.0000
              Bcc     0.0391     5.248     1.873     1.751  0.9142 -0.4053 -0.0000
 
              Baa    -0.1066   -14.304    -5.104    -4.771  0.0000  0.0000  1.0000
     6 C(13)  Bbb    -0.0246    -3.307    -1.180    -1.103 -0.4800  0.8772 -0.0000
              Bcc     0.1312    17.611     6.284     5.874  0.8772  0.4800  0.0000
 
              Baa    -0.1309    -6.853    -2.445    -2.286  0.0000  0.0000  1.0000
     7 Cl(35) Bbb    -0.0628    -3.285    -1.172    -1.096  0.9203 -0.3912 -0.0000
              Bcc     0.1937    10.138     3.618     3.382  0.3912  0.9203  0.0000
 
              Baa    -0.0120    -6.410    -2.287    -2.138  0.0000  0.0000  1.0000
     8 H(1)   Bbb    -0.0104    -5.566    -1.986    -1.857  0.9259 -0.3778 -0.0000
              Bcc     0.0224    11.976     4.273     3.995  0.3778  0.9259  0.0000
 
              Baa    -0.0055    -2.953    -1.054    -0.985  0.0000  0.0000  1.0000
     9 H(1)   Bbb    -0.0047    -2.492    -0.889    -0.831  0.9868  0.1619  0.0000
              Bcc     0.0102     5.446     1.943     1.817 -0.1619  0.9868  0.0000
 
              Baa    -0.0027    -1.444    -0.515    -0.482  0.0000  0.0000  1.0000
    10 H(1)   Bbb     0.0012     0.626     0.224     0.209  0.5809  0.8140  0.0000
              Bcc     0.0015     0.817     0.292     0.273  0.8140 -0.5809 -0.0000
 
              Baa    -0.0049    -2.600    -0.928    -0.867  0.0000  0.0000  1.0000
    11 H(1)   Bbb    -0.0042    -2.241    -0.800    -0.748 -0.2784  0.9605 -0.0000
              Bcc     0.0091     4.841     1.727     1.615  0.9605  0.2784  0.0000
 

 ---------------------------------------------------------------------------------

 Calling FoFJK, ICntrl=      2127 FMM=F ISym2X=1 I1Cent= 0 IOpClX= 1 NMat=1 NMatS=1 NMatT=0.
 ***** Axes restored to original set *****
 -------------------------------------------------------------------
 Center     Atomic                   Forces (Hartrees/Bohr)
 Number     Number              X              Y              Z
 -------------------------------------------------------------------
      1        6          -0.012218965    0.002258708    0.000000000
      2        6           0.008259188   -0.004802338   -0.000000000
      3        6           0.001853308    0.001895599   -0.000000000
      4        6           0.004122989   -0.001251500   -0.000000000
      5        6          -0.002633453    0.000412486    0.000000000
      6        6           0.042586939    0.013667657   -0.000000000
      7       17          -0.022659512   -0.012588889   -0.000000000
      8        1           0.000479913   -0.009294119   -0.000000000
      9        1          -0.008227709   -0.005580410   -0.000000000
     10        1          -0.010256362    0.005271410    0.000000000
     11        1          -0.001306335    0.010011397   -0.000000000
 -------------------------------------------------------------------
 Cartesian Forces:  Max     0.042586939 RMS     0.010107196

 GradGradGradGradGradGradGradGradGradGradGradGradGradGradGradGradGradGrad
 Berny optimization.
 FormGI is forming the generalized inverse of G from B-inverse, IUseBI=4.
 Internal  Forces:  Max     0.025919101 RMS     0.006171748
 Search for a local minimum.
 Step number   1 out of a maximum of   57
 All quantities printed in internal units (Hartrees-Bohrs-Radians)
 Mixed Optimization -- RFO/linear search
 Second derivative matrix not updated -- first step.
 ITU=  0
     Eigenvalues ---    0.01984   0.02011   0.02026   0.02039   0.02063
     Eigenvalues ---    0.02093   0.02158   0.02375   0.16000   0.16000
     Eigenvalues ---    0.16000   0.16000   0.22000   0.22421   0.24433
     Eigenvalues ---    0.25000   0.33624   0.33801   0.33845   0.34070
     Eigenvalues ---    0.37797   0.40826   0.42649   0.43925   0.45109
     Eigenvalues ---    0.48655   0.50258
 RFO step:  Lambda=-5.00378027D-03 EMin= 1.98425130D-02
 Linear search not attempted -- first point.
 Iteration  1 RMS(Cart)=  0.01957236 RMS(Int)=  0.00015986
 Iteration  2 RMS(Cart)=  0.00018041 RMS(Int)=  0.00004258
 Iteration  3 RMS(Cart)=  0.00000002 RMS(Int)=  0.00004258
 ClnCor:  largest displacement from symmetrization is 1.16D-09 for atom    10.
 Variable       Old X    -DE/DX   Delta X   Delta X   Delta X     New X
                                 (Linear)    (Quad)   (Total)
    R1        2.58823  -0.00137   0.00000  -0.00226  -0.00220   2.58603
    R2        2.60028  -0.00544   0.00000  -0.01051  -0.01045   2.58983
    R3        2.66159  -0.00785   0.00000  -0.01741  -0.01743   2.64416
    R4        2.07212  -0.00931   0.00000  -0.02692  -0.02692   2.04520
    R5        2.65072  -0.01049   0.00000  -0.02327  -0.02334   2.62738
    R6        2.07592  -0.00993   0.00000  -0.02890  -0.02890   2.04702
    R7        2.64779  -0.00966   0.00000  -0.02147  -0.02152   2.62627
    R8        2.07969  -0.01153   0.00000  -0.03378  -0.03378   2.04591
    R9        2.66976  -0.01179   0.00000  -0.02689  -0.02687   2.64289
   R10        2.07668  -0.01005   0.00000  -0.02930  -0.02930   2.04738
   R11        3.18361   0.02592   0.00000   0.06768   0.06768   3.25129
    A1        2.24392  -0.01202   0.00000  -0.04597  -0.04581   2.19811
    A2        2.00929   0.00574   0.00000   0.02615   0.02618   2.03547
    A3        2.13878  -0.00291   0.00000  -0.01331  -0.01332   2.12546
    A4        2.13511  -0.00283   0.00000  -0.01284  -0.01285   2.12226
    A5        2.09156   0.00002   0.00000  -0.00085  -0.00094   2.09062
    A6        2.09292   0.00057   0.00000   0.00392   0.00397   2.09689
    A7        2.09871  -0.00059   0.00000  -0.00308  -0.00303   2.09568
    A8        2.12597  -0.00173   0.00000  -0.00978  -0.00990   2.11607
    A9        2.08155   0.00115   0.00000   0.00663   0.00669   2.08824
   A10        2.07567   0.00058   0.00000   0.00315   0.00321   2.07888
   A11        2.08245   0.00183   0.00000   0.00640   0.00636   2.08881
   A12        2.10389   0.00009   0.00000   0.00286   0.00288   2.10678
   A13        2.09685  -0.00192   0.00000  -0.00927  -0.00925   2.08760
   A14        2.01319   0.00617   0.00000   0.02403   0.02411   2.03730
   A15        2.14139  -0.00366   0.00000  -0.01429  -0.01433   2.12707
   A16        2.12860  -0.00250   0.00000  -0.00975  -0.00978   2.11882
    D1        0.00000  -0.00000   0.00000  -0.00000   0.00000   0.00000
    D2        3.14159  -0.00000   0.00000  -0.00000   0.00000   3.14159
    D3        0.00000  -0.00000   0.00000   0.00000   0.00000   0.00000
    D4        3.14159  -0.00000   0.00000   0.00000   0.00000   3.14159
    D5        0.00000   0.00000   0.00000   0.00000   0.00000   0.00000
    D6        3.14159  -0.00000   0.00000   0.00000   0.00000   3.14159
    D7        3.14159  -0.00000   0.00000   0.00000   0.00000   3.14159
    D8        0.00000   0.00000   0.00000   0.00000   0.00000   0.00000
    D9        0.00000  -0.00000   0.00000   0.00000   0.00000   0.00000
   D10        3.14159  -0.00000   0.00000  -0.00000   0.00000   3.14159
   D11        3.14159  -0.00000   0.00000   0.00000   0.00000   3.14159
   D12        0.00000  -0.00000   0.00000   0.00000   0.00000   0.00000
   D13        0.00000  -0.00000   0.00000  -0.00000   0.00000   0.00000
   D14        3.14159   0.00000   0.00000  -0.00000   0.00000   3.14159
   D15        3.14159  -0.00000   0.00000  -0.00000   0.00000   3.14159
   D16        0.00000  -0.00000   0.00000  -0.00000   0.00000   0.00000
   D17        0.00000   0.00000   0.00000   0.00000   0.00000   0.00000
   D18        3.14159   0.00000   0.00000   0.00000   0.00000   3.14159
   D19        3.14159   0.00000   0.00000   0.00000   0.00000   3.14159
   D20        0.00000   0.00000   0.00000   0.00000   0.00000   0.00000
         Item               Value     Threshold  Converged?
 Maximum Force            0.025919     0.000450     NO 
 RMS     Force            0.006172     0.000300     NO 
 Maximum Displacement     0.064591     0.001800     NO 
 RMS     Displacement     0.019618     0.001200     NO 
 Predicted change in Energy=-2.538207D-03
 GradGradGradGradGradGradGradGradGradGradGradGradGradGradGradGradGradGrad

                          Input orientation:                          
 ---------------------------------------------------------------------
 Center     Atomic      Atomic             Coordinates (Angstroms)
 Number     Number       Type             X           Y           Z
 ---------------------------------------------------------------------
      1          6           0       -3.028844    0.163743   -0.000000
      2          6           0       -1.900562    0.938132   -0.000000
      3          6           0       -0.675737    0.261634   -0.000000
      4          6           0       -0.654606   -1.128556   -0.000000
      5          6           0       -1.831744   -1.867331   -0.000000
      6          6           0       -3.064210   -1.206280   -0.000000
      7         17           0       -4.548276   -2.076738   -0.000000
      8          1           0       -1.951234    2.019219   -0.000000
      9          1           0        0.253318    0.818642   -0.000000
     10          1           0        0.294341   -1.649733   -0.000000
     11          1           0       -1.805215   -2.950432   -0.000000
 ---------------------------------------------------------------------
                    Distance matrix (angstroms):
                    1          2          3          4          5
     1  C    0.000000
     2  C    1.368466   0.000000
     3  C    2.355143   1.399231   0.000000
     4  C    2.703155   2.413215   1.390350   0.000000
     5  C    2.357607   2.806307   2.422570   1.389763   0.000000
     6  C    1.370480   2.439791   2.803494   2.410857   1.398557
     7  Cl   2.707107   4.012459   4.523776   4.007458   2.724591
     8  H    2.145702   1.082273   2.171635   3.404369   3.888386
     9  H    3.346862   2.157193   1.083236   2.148466   3.400284
    10  H    3.785797   3.393324   2.143449   1.082648   2.137191
    11  H    3.345946   3.889733   3.404863   2.154794   1.083427
                    6          7          8          9         10
     6  C    0.000000
     7  Cl   1.720508   0.000000
     8  H    3.412120   4.849896   0.000000
     9  H    3.886683   5.607007   2.510266   0.000000
    10  H    3.387701   4.861406   4.301606   2.468715   0.000000
    11  H    2.151078   2.878841   4.971796   4.294587   2.469809
                   11
    11  H    0.000000
 Stoichiometry    C6H4Cl(2)
 Framework group  CS[SG(C6H4Cl)]
 Deg. of freedom    19
 Full point group                 CS      NOp   2
 Largest Abelian subgroup         CS      NOp   2
 Largest concise Abelian subgroup C1      NOp   1
                         Standard orientation:                         
 ---------------------------------------------------------------------
 Center     Atomic      Atomic             Coordinates (Angstroms)
 Number     Number       Type             X           Y           Z
 ---------------------------------------------------------------------
      1          6           0       -1.189207   -0.139150    0.000000
      2          6           0       -1.335534   -1.499771    0.000000
      3          6           0       -0.158882   -2.256963    0.000000
      4          6           0        1.074883   -1.615950    0.000000
      5          6           0        1.166678   -0.229222    0.000000
      6          6           0        0.000000    0.542026    0.000000
      7         17           0        0.062081    2.261413    0.000000
      8          1           0       -2.311222   -1.968117    0.000000
      9          1           0       -0.208383   -3.339067    0.000000
     10          1           0        1.983912   -2.203991    0.000000
     11          1           0        2.132685    0.261333    0.000000
 ---------------------------------------------------------------------
 Rotational constants (GHZ):           6.1415188           1.5662782           1.2479995
 Standard basis: 6-311++G(d,p) (5D, 7F)
 There are   149 symmetry adapted cartesian basis functions of A'  symmetry.
 There are    48 symmetry adapted cartesian basis functions of A"  symmetry.
 There are   142 symmetry adapted basis functions of A'  symmetry.
 There are    48 symmetry adapted basis functions of A"  symmetry.
   190 basis functions,   305 primitive gaussians,   197 cartesian basis functions
    29 alpha electrons       28 beta electrons
       nuclear repulsion energy       304.4609666420 Hartrees.
 NAtoms=   11 NActive=   11 NUniq=   11 SFac= 1.00D+00 NAtFMM=   60 NAOKFM=F Big=F
 Integral buffers will be    131072 words long.
 Raffenetti 2 integral format.
 Two-electron integral symmetry is turned on.
 One-electron integrals computed using PRISM.
 NBasis=   190 RedAO= T EigKep=  1.61D-06  NBF=   142    48
 NBsUse=   190 1.00D-06 EigRej= -1.00D+00 NBFU=   142    48
 Initial guess from the checkpoint file:  "frequency_chks/12-1_-ClBzNeutralRadical_Freq.chk"
 B after Tr=     0.000000   -0.000000    0.000000
         Rot=    0.999982    0.000000    0.000000    0.005978 Ang=   0.69 deg.
 Initial guess orbital symmetries:
 Alpha Orbitals:
       Occupied  (A') (A') (A') (A') (A') (A') (A') (A') (A') (A")
                 (A') (A') (A') (A') (A') (A') (A') (A') (A') (A')
                 (A') (A") (A') (A') (A") (A') (A") (A') (A")
       Virtual   (A") (A') (A") (A') (A') (A') (A') (A") (A') (A')
                 (A") (A') (A") (A') (A') (A") (A') (A') (A') (A")
                 (A') (A") (A') (A') (A") (A') (A') (A') (A') (A")
                 (A') (A') (A') (A') (A') (A') (A') (A') (A') (A')
                 (A') (A') (A') (A') (A') (A') (A") (A') (A') (A")
                 (A') (A') (A') (A") (A") (A') (A') (A') (A") (A")
                 (A') (A") (A') (A') (A') (A') (A') (A') (A") (A')
                 (A') (A') (A') (A") (A') (A') (A') (A') (A') (A")
                 (A") (A') (A") (A") (A') (A') (A") (A') (A") (A')
                 (A') (A') (A') (A") (A') (A") (A') (A') (A") (A')
                 (A") (A') (A') (A') (A") (A") (A') (A") (A') (A')
                 (A') (A") (A') (A") (A') (A") (A") (A') (A') (A')
                 (A') (A') (A') (A') (A") (A') (A') (A') (A') (A')
                 (A') (A") (A") (A') (A") (A") (A') (A") (A') (A')
                 (A') (A') (A') (A') (A') (A') (A') (A') (A') (A')
                 (A') (A') (A') (A') (A') (A') (A') (A") (A') (A')
                 (A')
 Beta  Orbitals:
       Occupied  (A') (A') (A') (A') (A') (A') (A') (A') (A') (A")
                 (A') (A') (A') (A') (A') (A') (A') (A') (A') (A')
                 (A') (A") (A') (A') (A") (A') (A") (A")
       Virtual   (A') (A") (A') (A') (A") (A') (A') (A') (A") (A')
                 (A') (A") (A') (A") (A') (A') (A") (A') (A') (A')
                 (A") (A') (A") (A') (A') (A") (A') (A') (A') (A')
                 (A") (A') (A') (A') (A') (A') (A') (A') (A') (A')
                 (A') (A') (A') (A') (A') (A') (A') (A") (A') (A')
                 (A") (A') (A') (A') (A') (A") (A") (A') (A') (A")
                 (A") (A") (A') (A') (A') (A') (A') (A') (A') (A")
                 (A') (A') (A') (A') (A') (A") (A') (A') (A') (A')
                 (A") (A") (A') (A") (A") (A') (A') (A') (A") (A")
                 (A') (A') (A') (A') (A") (A") (A') (A') (A') (A")
                 (A') (A") (A') (A') (A') (A") (A") (A') (A') (A")
                 (A') (A') (A") (A') (A") (A') (A") (A") (A') (A')
                 (A') (A') (A') (A') (A') (A") (A') (A') (A') (A')
                 (A') (A') (A") (A") (A') (A") (A") (A') (A") (A')
                 (A') (A') (A') (A') (A') (A') (A') (A') (A') (A')
                 (A') (A') (A') (A') (A') (A') (A') (A') (A") (A')
                 (A') (A')
 Initial guess <Sx>= 0.0000 <Sy>= 0.0000 <Sz>= 0.5000 <S**2>= 0.7625 S= 0.5062
 ExpMin= 3.60D-02 ExpMax= 1.06D+05 ExpMxC= 3.62D+03 IAcc=3 IRadAn=         5 AccDes= 0.00D+00
 Harris functional with IExCor= 1009 and IRadAn=       5 diagonalized for initial guess.
 HarFok:  IExCor= 1009 AccDes= 0.00D+00 IRadAn=         5 IDoV= 1 UseB2=F ITyADJ=14
 ICtDFT=  3500011 ScaDFX=  1.000000  1.000000  1.000000  1.000000
 FoFCou: FMM=F IPFlag=           0 FMFlag=      100000 FMFlg1=           0
         NFxFlg=           0 DoJE=T BraDBF=F KetDBF=T FulRan=T
         wScrn=  0.000000 ICntrl=       500 IOpCl=  0 I1Cent=   200000004 NGrid=           0
         NMat0=    1 NMatS0=      1 NMatT0=    0 NMatD0=    1 NMtDS0=    0 NMtDT0=    0
 Petite list used in FoFCou.
 Keep R1 and R2 ints in memory in symmetry-blocked form, NReq=262273818.
 Requested convergence on RMS density matrix=1.00D-08 within 128 cycles.
 Requested convergence on MAX density matrix=1.00D-06.
 Requested convergence on             energy=1.00D-06.
 No special actions if energy rises.
 SCF Done:  E(UM062X) =  -691.111000815     A.U. after   16 cycles
            NFock= 16  Conv=0.50D-08     -V/T= 2.0027
 <Sx>= 0.0000 <Sy>= 0.0000 <Sz>= 0.5000 <S**2>= 0.7623 S= 0.5061
 <L.S>=  0.00000000000    
 Annihilation of the first spin contaminant:
 S**2 before annihilation     0.7623,   after     0.7501
 Calling FoFJK, ICntrl=      2127 FMM=F ISym2X=1 I1Cent= 0 IOpClX= 1 NMat=1 NMatS=1 NMatT=0.
 ***** Axes restored to original set *****
 -------------------------------------------------------------------
 Center     Atomic                   Forces (Hartrees/Bohr)
 Number     Number              X              Y              Z
 -------------------------------------------------------------------
      1        6          -0.006612257    0.000832091    0.000000000
      2        6           0.003208261   -0.001835107   -0.000000000
      3        6          -0.000774898    0.002006256   -0.000000000
      4        6           0.001330418   -0.000296835   -0.000000000
      5        6          -0.003928620   -0.002016231    0.000000000
      6        6           0.014203731    0.004675592   -0.000000000
      7       17          -0.006985029   -0.003942998   -0.000000000
      8        1           0.000029676    0.000770269   -0.000000000
      9        1          -0.000097850    0.000467257   -0.000000000
     10        1           0.000145902   -0.000359321   -0.000000000
     11        1          -0.000519334   -0.000300973   -0.000000000
 -------------------------------------------------------------------
 Cartesian Forces:  Max     0.014203731 RMS     0.003363510

 GradGradGradGradGradGradGradGradGradGradGradGradGradGradGradGradGradGrad
 Berny optimization.
 Using GEDIIS/GDIIS optimizer.
 FormGI is forming the generalized inverse of G from B-inverse, IUseBI=4.
 Internal  Forces:  Max     0.008020146 RMS     0.001626688
 Search for a local minimum.
 Step number   2 out of a maximum of   57
 All quantities printed in internal units (Hartrees-Bohrs-Radians)
 Mixed Optimization -- RFO/linear search
 Update second derivatives using D2CorX and points    1    2
 DE= -2.93D-03 DEPred=-2.54D-03 R= 1.15D+00
 TightC=F SS=  1.41D+00  RLast= 1.21D-01 DXNew= 5.0454D-01 3.6261D-01
 Trust test= 1.15D+00 RLast= 1.21D-01 DXMaxT set to 3.63D-01
 ITU=  1  0
 Use linear search instead of GDIIS.
     Eigenvalues ---    0.01985   0.02010   0.02025   0.02039   0.02063
     Eigenvalues ---    0.02093   0.02158   0.02369   0.15891   0.16000
     Eigenvalues ---    0.16000   0.16023   0.20121   0.22001   0.22792
     Eigenvalues ---    0.24999   0.32926   0.33693   0.33824   0.34043
     Eigenvalues ---    0.36041   0.40644   0.43495   0.44569   0.45105
     Eigenvalues ---    0.49760   0.51801
 RFO step:  Lambda=-3.42287621D-04 EMin= 1.98455124D-02
 Quartic linear search produced a step of  0.20508.
 Iteration  1 RMS(Cart)=  0.00555074 RMS(Int)=  0.00004179
 Iteration  2 RMS(Cart)=  0.00004916 RMS(Int)=  0.00002105
 Iteration  3 RMS(Cart)=  0.00000000 RMS(Int)=  0.00002105
 ClnCor:  largest displacement from symmetrization is 7.33D-10 for atom    10.
 Variable       Old X    -DE/DX   Delta X   Delta X   Delta X     New X
                                 (Linear)    (Quad)   (Total)
    R1        2.58603   0.00211  -0.00045   0.00521   0.00478   2.59080
    R2        2.58983   0.00025  -0.00214   0.00192  -0.00019   2.58964
    R3        2.64416  -0.00059  -0.00357   0.00092  -0.00267   2.64150
    R4        2.04520   0.00077  -0.00552   0.00647   0.00095   2.04615
    R5        2.62738   0.00190  -0.00479   0.00847   0.00365   2.63103
    R6        2.04702   0.00016  -0.00593   0.00459  -0.00133   2.04569
    R7        2.62627   0.00147  -0.00441   0.00694   0.00251   2.62878
    R8        2.04591   0.00030  -0.00693   0.00580  -0.00113   2.04478
    R9        2.64289  -0.00257  -0.00551  -0.00346  -0.00895   2.63394
   R10        2.04738   0.00029  -0.00601   0.00512  -0.00089   2.04649
   R11        3.25129   0.00802   0.01388   0.01611   0.02999   3.28128
    A1        2.19811  -0.00356  -0.00939  -0.01123  -0.02055   2.17755
    A2        2.03547   0.00117   0.00537   0.00281   0.00818   2.04365
    A3        2.12546  -0.00052  -0.00273  -0.00089  -0.00362   2.12184
    A4        2.12226  -0.00065  -0.00264  -0.00193  -0.00456   2.11769
    A5        2.09062   0.00031  -0.00019   0.00238   0.00214   2.09275
    A6        2.09689  -0.00062   0.00081  -0.00518  -0.00434   2.09255
    A7        2.09568   0.00031  -0.00062   0.00280   0.00220   2.09788
    A8        2.11607  -0.00071  -0.00203  -0.00196  -0.00405   2.11202
    A9        2.08824   0.00060   0.00137   0.00260   0.00400   2.09223
   A10        2.07888   0.00011   0.00066  -0.00064   0.00005   2.07893
   A11        2.08881  -0.00114   0.00131  -0.00714  -0.00584   2.08297
   A12        2.10678   0.00111   0.00059   0.00674   0.00733   2.11411
   A13        2.08760   0.00004  -0.00190   0.00040  -0.00149   2.08611
   A14        2.03730   0.00393   0.00494   0.01514   0.02012   2.05743
   A15        2.12707  -0.00218  -0.00294  -0.00826  -0.01122   2.11584
   A16        2.11882  -0.00176  -0.00201  -0.00687  -0.00890   2.10992
    D1        0.00000   0.00000   0.00000  -0.00000   0.00000   0.00000
    D2        3.14159  -0.00000   0.00000  -0.00000   0.00000   3.14159
    D3        0.00000   0.00000   0.00000   0.00000   0.00000   0.00000
    D4        3.14159  -0.00000   0.00000  -0.00000   0.00000   3.14159
    D5        0.00000   0.00000   0.00000  -0.00000   0.00000   0.00000
    D6        3.14159   0.00000   0.00000  -0.00000   0.00000   3.14159
    D7        3.14159   0.00000   0.00000  -0.00000   0.00000   3.14159
    D8        0.00000   0.00000   0.00000   0.00000   0.00000   0.00000
    D9        0.00000  -0.00000   0.00000   0.00000   0.00000   0.00000
   D10        3.14159   0.00000   0.00000   0.00000   0.00000   3.14159
   D11        3.14159   0.00000   0.00000   0.00000   0.00000   3.14159
   D12        0.00000   0.00000   0.00000   0.00000   0.00000   0.00000
   D13        0.00000  -0.00000   0.00000  -0.00000   0.00000   0.00000
   D14        3.14159   0.00000   0.00000   0.00000   0.00000   3.14159
   D15        3.14159  -0.00000   0.00000  -0.00000   0.00000   3.14159
   D16        0.00000   0.00000   0.00000  -0.00000   0.00000   0.00000
   D17        0.00000   0.00000   0.00000  -0.00000   0.00000   0.00000
   D18        3.14159   0.00000   0.00000   0.00000   0.00000   3.14159
   D19        3.14159  -0.00000   0.00000  -0.00000   0.00000   3.14159
   D20        0.00000  -0.00000   0.00000  -0.00000   0.00000   0.00000
         Item               Value     Threshold  Converged?
 Maximum Force            0.008020     0.000450     NO 
 RMS     Force            0.001627     0.000300     NO 
 Maximum Displacement     0.019505     0.001800     NO 
 RMS     Displacement     0.005548     0.001200     NO 
 Predicted change in Energy=-2.584708D-04
 GradGradGradGradGradGradGradGradGradGradGradGradGradGradGradGradGradGrad

                          Input orientation:                          
 ---------------------------------------------------------------------
 Center     Atomic      Atomic             Coordinates (Angstroms)
 Number     Number       Type             X           Y           Z
 ---------------------------------------------------------------------
      1          6           0       -3.036600    0.169035   -0.000000
      2          6           0       -1.900552    0.936514   -0.000000
      3          6           0       -0.676407    0.261706   -0.000000
      4          6           0       -0.651128   -1.130346   -0.000000
      5          6           0       -1.830194   -1.868545   -0.000000
      6          6           0       -3.053889   -1.201236   -0.000000
      7         17           0       -4.549912   -2.082668   -0.000000
      8          1           0       -1.947202    2.018286   -0.000000
      9          1           0        0.249158    0.823134   -0.000000
     10          1           0        0.296753   -1.652218   -0.000000
     11          1           0       -1.812796   -2.951361   -0.000000
 ---------------------------------------------------------------------
                    Distance matrix (angstroms):
                    1          2          3          4          5
     1  C    0.000000
     2  C    1.370995   0.000000
     3  C    2.362011   1.397819   0.000000
     4  C    2.716407   2.415155   1.392281   0.000000
     5  C    2.367942   2.805941   2.422642   1.391091   0.000000
     6  C    1.370380   2.429024   2.791526   2.403806   1.393819
     7  Cl   2.712984   4.016786   4.527707   4.013407   2.728134
     8  H    2.146279   1.082777   2.168063   3.404951   3.888592
     9  H    3.350231   2.152698   1.082530   2.150953   3.401300
    10  H    3.798448   3.395539   2.147125   1.082049   2.137920
    11  H    3.351801   3.888866   3.408105   2.159993   1.082956
                    6          7          8          9         10
     6  C    0.000000
     7  Cl   1.736378   0.000000
     8  H    3.404420   4.857152   0.000000
     9  H    3.874040   5.610237   2.500477   0.000000
    10  H    3.380856   4.865742   4.302085   2.475810   0.000000
    11  H    2.145519   2.871661   4.971465   4.300984   2.477492
                   11
    11  H    0.000000
 Stoichiometry    C6H4Cl(2)
 Framework group  CS[SG(C6H4Cl)]
 Deg. of freedom    19
 Full point group                 CS      NOp   2
 Largest Abelian subgroup         CS      NOp   2
 Largest concise Abelian subgroup C1      NOp   1
                         Standard orientation:                         
 ---------------------------------------------------------------------
 Center     Atomic      Atomic             Coordinates (Angstroms)
 Number     Number       Type             X           Y           Z
 ---------------------------------------------------------------------
      1          6           0       -1.198795   -0.133822    0.000000
      2          6           0       -1.336982   -1.497835    0.000000
      3          6           0       -0.163046   -2.256632    0.000000
      4          6           0        1.075088   -1.619864    0.000000
      5          6           0        1.167118   -0.231821    0.000000
      6          6           0        0.000000    0.530129    0.000000
      7         17           0        0.068139    2.265170    0.000000
      8          1           0       -2.311928   -1.968883    0.000000
      9          1           0       -0.219384   -3.337695    0.000000
     10          1           0        1.983522   -2.207722    0.000000
     11          1           0        2.129135    0.265487    0.000000
 ---------------------------------------------------------------------
 Rotational constants (GHZ):           6.1175357           1.5635321           1.2452648
 Standard basis: 6-311++G(d,p) (5D, 7F)
 There are   149 symmetry adapted cartesian basis functions of A'  symmetry.
 There are    48 symmetry adapted cartesian basis functions of A"  symmetry.
 There are   142 symmetry adapted basis functions of A'  symmetry.
 There are    48 symmetry adapted basis functions of A"  symmetry.
   190 basis functions,   305 primitive gaussians,   197 cartesian basis functions
    29 alpha electrons       28 beta electrons
       nuclear repulsion energy       304.0572071582 Hartrees.
 NAtoms=   11 NActive=   11 NUniq=   11 SFac= 1.00D+00 NAtFMM=   60 NAOKFM=F Big=F
 Integral buffers will be    131072 words long.
 Raffenetti 2 integral format.
 Two-electron integral symmetry is turned on.
 One-electron integrals computed using PRISM.
 NBasis=   190 RedAO= T EigKep=  1.64D-06  NBF=   142    48
 NBsUse=   190 1.00D-06 EigRej= -1.00D+00 NBFU=   142    48
 Initial guess from the checkpoint file:  "frequency_chks/12-1_-ClBzNeutralRadical_Freq.chk"
 B after Tr=    -0.000000   -0.000000    0.000000
         Rot=    0.999999    0.000000    0.000000    0.001003 Ang=   0.11 deg.
 Initial guess orbital symmetries:
 Alpha Orbitals:
       Occupied  (A') (A') (A') (A') (A') (A') (A') (A') (A') (A')
                 (A") (A') (A') (A') (A') (A') (A') (A') (A') (A')
                 (A') (A") (A') (A') (A") (A') (A") (A') (A")
       Virtual   (A') (A") (A") (A') (A') (A') (A') (A") (A') (A')
                 (A") (A') (A") (A') (A') (A") (A') (A') (A') (A")
                 (A') (A") (A') (A') (A') (A") (A') (A') (A') (A")
                 (A') (A') (A') (A') (A') (A') (A') (A') (A') (A')
                 (A') (A') (A') (A') (A') (A') (A") (A') (A') (A")
                 (A') (A') (A') (A") (A") (A') (A') (A') (A") (A")
                 (A') (A") (A') (A') (A') (A') (A') (A') (A') (A")
                 (A') (A') (A') (A') (A") (A') (A') (A') (A') (A")
                 (A") (A') (A") (A") (A') (A') (A") (A') (A") (A')
                 (A') (A') (A') (A') (A") (A") (A') (A') (A") (A')
                 (A") (A') (A') (A') (A") (A") (A') (A") (A') (A')
                 (A') (A") (A') (A") (A') (A") (A") (A') (A') (A')
                 (A') (A') (A') (A') (A') (A") (A') (A') (A') (A')
                 (A") (A') (A") (A') (A") (A") (A') (A") (A') (A')
                 (A') (A') (A') (A') (A') (A') (A') (A') (A') (A')
                 (A') (A') (A') (A') (A') (A') (A') (A") (A') (A')
                 (A')
 Beta  Orbitals:
       Occupied  (A') (A') (A') (A') (A') (A') (A') (A') (A') (A")
                 (A') (A') (A') (A') (A') (A') (A') (A') (A') (A')
                 (A') (A") (A') (A') (A") (A') (A") (A")
       Virtual   (A') (A') (A") (A') (A") (A') (A') (A') (A") (A')
                 (A') (A") (A") (A') (A') (A') (A") (A') (A') (A')
                 (A") (A') (A") (A') (A') (A") (A') (A') (A') (A')
                 (A") (A') (A') (A') (A') (A') (A') (A') (A') (A')
                 (A') (A') (A') (A') (A') (A') (A') (A") (A') (A')
                 (A') (A") (A') (A') (A') (A") (A") (A') (A') (A")
                 (A") (A") (A') (A') (A') (A') (A') (A') (A') (A')
                 (A") (A') (A') (A') (A') (A") (A') (A') (A') (A')
                 (A") (A") (A') (A") (A") (A') (A') (A') (A") (A")
                 (A') (A') (A') (A') (A") (A') (A") (A') (A') (A")
                 (A') (A") (A') (A') (A') (A") (A") (A') (A") (A')
                 (A') (A') (A") (A') (A") (A') (A") (A") (A') (A')
                 (A') (A') (A') (A') (A') (A') (A") (A') (A') (A')
                 (A') (A") (A') (A") (A') (A") (A") (A') (A") (A')
                 (A') (A') (A') (A') (A') (A') (A') (A') (A') (A')
                 (A') (A') (A') (A') (A') (A') (A') (A') (A") (A')
                 (A') (A')
 Initial guess <Sx>= 0.0000 <Sy>= 0.0000 <Sz>= 0.5000 <S**2>= 0.7623 S= 0.5061
 Keep R1 and R2 ints in memory in symmetry-blocked form, NReq=262273818.
 Requested convergence on RMS density matrix=1.00D-08 within 128 cycles.
 Requested convergence on MAX density matrix=1.00D-06.
 Requested convergence on             energy=1.00D-06.
 No special actions if energy rises.
 SCF Done:  E(UM062X) =  -691.111304420     A.U. after   15 cycles
            NFock= 15  Conv=0.74D-08     -V/T= 2.0027
 <Sx>= 0.0000 <Sy>= 0.0000 <Sz>= 0.5000 <S**2>= 0.7624 S= 0.5062
 <L.S>=  0.00000000000    
 Annihilation of the first spin contaminant:
 S**2 before annihilation     0.7624,   after     0.7501
 Calling FoFJK, ICntrl=      2127 FMM=F ISym2X=1 I1Cent= 0 IOpClX= 1 NMat=1 NMatS=1 NMatT=0.
 ***** Axes restored to original set *****
 -------------------------------------------------------------------
 Center     Atomic                   Forces (Hartrees/Bohr)
 Number     Number              X              Y              Z
 -------------------------------------------------------------------
      1        6          -0.001196253   -0.000471201    0.000000000
      2        6           0.000388047    0.000043094   -0.000000000
      3        6          -0.000561150   -0.000498294   -0.000000000
      4        6          -0.000050341    0.000664447   -0.000000000
      5        6          -0.000749173   -0.000932221   -0.000000000
      6        6           0.002564262    0.001619660   -0.000000000
      7       17          -0.001509874   -0.000746278    0.000000000
      8        1           0.000079761    0.000552671   -0.000000000
      9        1           0.000442722    0.000419399   -0.000000000
     10        1           0.000626589   -0.000248789   -0.000000000
     11        1          -0.000034591   -0.000402490   -0.000000000
 -------------------------------------------------------------------
 Cartesian Forces:  Max     0.002564262 RMS     0.000729877

 GradGradGradGradGradGradGradGradGradGradGradGradGradGradGradGradGradGrad
 Berny optimization.
 Using GEDIIS/GDIIS optimizer.
 FormGI is forming the generalized inverse of G from B-inverse, IUseBI=4.
 Internal  Forces:  Max     0.001679830 RMS     0.000392099
 Search for a local minimum.
 Step number   3 out of a maximum of   57
 All quantities printed in internal units (Hartrees-Bohrs-Radians)
 Mixed Optimization -- En-DIIS/RFO-DIIS
 Update second derivatives using D2CorX and points    1    2    3
 DE= -3.04D-04 DEPred=-2.58D-04 R= 1.17D+00
 TightC=F SS=  1.41D+00  RLast= 4.81D-02 DXNew= 6.0984D-01 1.4444D-01
 Trust test= 1.17D+00 RLast= 4.81D-02 DXMaxT set to 3.63D-01
 ITU=  1  1  0
 Use linear search instead of GDIIS.
     Eigenvalues ---    0.01985   0.02010   0.02025   0.02039   0.02063
     Eigenvalues ---    0.02093   0.02158   0.02366   0.15525   0.16000
     Eigenvalues ---    0.16014   0.16036   0.17571   0.22006   0.22912
     Eigenvalues ---    0.25025   0.31894   0.33699   0.33838   0.34006
     Eigenvalues ---    0.36401   0.40741   0.43516   0.44903   0.45315
     Eigenvalues ---    0.49747   0.51727
 RFO step:  Lambda=-1.08470985D-05 EMin= 1.98482503D-02
 Quartic linear search produced a step of  0.22924.
 Iteration  1 RMS(Cart)=  0.00168434 RMS(Int)=  0.00000417
 Iteration  2 RMS(Cart)=  0.00000293 RMS(Int)=  0.00000350
 Iteration  3 RMS(Cart)=  0.00000000 RMS(Int)=  0.00000350
 ClnCor:  largest displacement from symmetrization is 3.78D-10 for atom    10.
 Variable       Old X    -DE/DX   Delta X   Delta X   Delta X     New X
                                 (Linear)    (Quad)   (Total)
    R1        2.59080   0.00055   0.00110   0.00031   0.00141   2.59221
    R2        2.58964  -0.00019  -0.00004  -0.00067  -0.00071   2.58893
    R3        2.64150   0.00015  -0.00061   0.00053  -0.00008   2.64141
    R4        2.04615   0.00055   0.00022   0.00121   0.00143   2.04758
    R5        2.63103   0.00023   0.00084  -0.00053   0.00030   2.63133
    R6        2.04569   0.00060  -0.00031   0.00179   0.00148   2.04716
    R7        2.62878   0.00073   0.00058   0.00107   0.00164   2.63042
    R8        2.04478   0.00067  -0.00026   0.00192   0.00166   2.04644
    R9        2.63394   0.00004  -0.00205   0.00128  -0.00077   2.63317
   R10        2.04649   0.00040  -0.00020   0.00100   0.00080   2.04729
   R11        3.28128   0.00168   0.00688   0.00111   0.00798   3.28926
    A1        2.17755  -0.00038  -0.00471   0.00098  -0.00373   2.17383
    A2        2.04365  -0.00014   0.00188  -0.00186   0.00002   2.04367
    A3        2.12184   0.00018  -0.00083   0.00162   0.00079   2.12263
    A4        2.11769  -0.00003  -0.00105   0.00024  -0.00081   2.11688
    A5        2.09275   0.00031   0.00049   0.00135   0.00183   2.09459
    A6        2.09255  -0.00029  -0.00099  -0.00101  -0.00200   2.09055
    A7        2.09788  -0.00002   0.00050  -0.00034   0.00017   2.09805
    A8        2.11202  -0.00004  -0.00093   0.00051  -0.00042   2.11160
    A9        2.09223  -0.00007   0.00092  -0.00125  -0.00033   2.09190
   A10        2.07893   0.00011   0.00001   0.00074   0.00075   2.07969
   A11        2.08297  -0.00062  -0.00134  -0.00198  -0.00332   2.07965
   A12        2.11411   0.00035   0.00168   0.00060   0.00228   2.11639
   A13        2.08611   0.00027  -0.00034   0.00138   0.00103   2.08714
   A14        2.05743   0.00087   0.00461   0.00099   0.00562   2.06304
   A15        2.11584  -0.00063  -0.00257  -0.00129  -0.00386   2.11198
   A16        2.10992  -0.00024  -0.00204   0.00029  -0.00175   2.10817
    D1        0.00000  -0.00000   0.00000   0.00000   0.00000   0.00000
    D2        3.14159  -0.00000   0.00000   0.00000   0.00000   3.14159
    D3        0.00000  -0.00000   0.00000  -0.00000   0.00000   0.00000
    D4        3.14159   0.00000   0.00000  -0.00000   0.00000   3.14159
    D5        0.00000   0.00000   0.00000  -0.00000   0.00000   0.00000
    D6        3.14159  -0.00000   0.00000  -0.00000   0.00000   3.14159
    D7        3.14159   0.00000   0.00000  -0.00000   0.00000   3.14159
    D8        0.00000   0.00000   0.00000  -0.00000   0.00000   0.00000
    D9        0.00000   0.00000   0.00000   0.00000   0.00000   0.00000
   D10        3.14159  -0.00000   0.00000   0.00000   0.00000   3.14159
   D11        3.14159  -0.00000   0.00000  -0.00000   0.00000   3.14159
   D12        0.00000  -0.00000   0.00000  -0.00000   0.00000   0.00000
   D13        0.00000   0.00000   0.00000   0.00000   0.00000   0.00000
   D14        3.14159  -0.00000   0.00000  -0.00000   0.00000   3.14159
   D15        3.14159  -0.00000   0.00000   0.00000   0.00000   3.14159
   D16        0.00000  -0.00000   0.00000  -0.00000   0.00000   0.00000
   D17        0.00000  -0.00000   0.00000  -0.00000   0.00000   0.00000
   D18        3.14159  -0.00000   0.00000  -0.00000   0.00000   3.14159
   D19        3.14159  -0.00000   0.00000   0.00000   0.00000   3.14159
   D20        0.00000  -0.00000   0.00000   0.00000   0.00000   0.00000
         Item               Value     Threshold  Converged?
 Maximum Force            0.001680     0.000450     NO 
 RMS     Force            0.000392     0.000300     NO 
 Maximum Displacement     0.004836     0.001800     NO 
 RMS     Displacement     0.001684     0.001200     NO 
 Predicted change in Energy=-1.584333D-05
 GradGradGradGradGradGradGradGradGradGradGradGradGradGradGradGradGradGrad

                          Input orientation:                          
 ---------------------------------------------------------------------
 Center     Atomic      Atomic             Coordinates (Angstroms)
 Number     Number       Type             X           Y           Z
 ---------------------------------------------------------------------
      1          6           0       -3.038202    0.169780   -0.000000
      2          6           0       -1.901008    0.936890   -0.000000
      3          6           0       -0.677356    0.261277   -0.000000
      4          6           0       -0.650459   -1.130905   -0.000000
      5          6           0       -1.829718   -1.870432   -0.000000
      6          6           0       -3.051330   -1.200162   -0.000000
      7         17           0       -4.551726   -2.082494   -0.000000
      8          1           0       -1.946084    2.019487   -0.000000
      9          1           0        0.248131    0.824341   -0.000000
     10          1           0        0.298970   -1.651787   -0.000000
     11          1           0       -1.813988   -2.953696   -0.000000
 ---------------------------------------------------------------------
                    Distance matrix (angstroms):
                    1          2          3          4          5
     1  C    0.000000
     2  C    1.371739   0.000000
     3  C    2.362618   1.397776   0.000000
     4  C    2.719025   2.416536   1.392441   0.000000
     5  C    2.371265   2.808227   2.423245   1.391959   0.000000
     6  C    1.370005   2.426979   2.787751   2.401869   1.393412
     7  Cl   2.713576   4.017833   4.528135   4.015645   2.730257
     8  H    2.148054   1.083535   2.168173   3.406407   3.891658
     9  H    3.350885   2.152084   1.083313   2.151848   3.402830
    10  H    3.801950   3.397228   2.147796   1.082929   2.139887
    11  H    3.354818   3.891559   3.409982   2.162491   1.083378
                    6          7          8          9         10
     6  C    0.000000
     7  Cl   1.740603   0.000000
     8  H    3.404072   4.859590   0.000000
     9  H    3.871053   5.611445   2.498590   0.000000
    10  H    3.380603   4.869781   4.303315   2.476650   0.000000
    11  H    2.146135   2.873013   4.974936   4.304172   2.481845
                   11
    11  H    0.000000
 Stoichiometry    C6H4Cl(2)
 Framework group  CS[SG(C6H4Cl)]
 Deg. of freedom    19
 Full point group                 CS      NOp   2
 Largest Abelian subgroup         CS      NOp   2
 Largest concise Abelian subgroup C1      NOp   1
                         Standard orientation:                         
 ---------------------------------------------------------------------
 Center     Atomic      Atomic             Coordinates (Angstroms)
 Number     Number       Type             X           Y           Z
 ---------------------------------------------------------------------
      1          6           0       -1.199889   -0.134230    0.000000
      2          6           0       -1.335994   -1.499199    0.000000
      3          6           0       -0.160909   -2.256136    0.000000
      4          6           0        1.077539   -1.619632    0.000000
      5          6           0        1.169413   -0.230708    0.000000
      6          6           0        0.000000    0.526967    0.000000
      7         17           0        0.065315    2.266344    0.000000
      8          1           0       -2.310501   -1.972891    0.000000
[...]
 Cartesian Forces:  Max     0.000332105 RMS     0.000117020
 FormGI is forming the generalized inverse of G from B-inverse, IUseBI=4.

 GradGradGradGradGradGradGradGradGradGradGradGradGradGradGradGradGradGrad
 Berny optimization.
 Internal  Forces:  Max     0.000195993 RMS     0.000066294
 Search for a local minimum.
 Step number   1 out of a maximum of    2
 All quantities printed in internal units (Hartrees-Bohrs-Radians)
 Second derivative matrix not updated -- analytic derivatives used.
 ITU=  0
     Eigenvalues ---    0.01774   0.01788   0.01965   0.02442   0.02674
     Eigenvalues ---    0.02805   0.03322   0.03915   0.10562   0.10939
     Eigenvalues ---    0.11716   0.12023   0.15561   0.17336   0.18433
     Eigenvalues ---    0.19320   0.26425   0.27339   0.36242   0.36467
     Eigenvalues ---    0.36597   0.36711   0.42493   0.42683   0.47610
     Eigenvalues ---    0.49281   0.52729
 Angle between quadratic step and forces=  17.72 degrees.
 Linear search not attempted -- first point.
 Iteration  1 RMS(Cart)=  0.00051687 RMS(Int)=  0.00000019
 Iteration  2 RMS(Cart)=  0.00000026 RMS(Int)=  0.00000002
 ClnCor:  largest displacement from symmetrization is 9.74D-16 for atom     9.
 Variable       Old X    -DE/DX   Delta X   Delta X   Delta X     New X
                                 (Linear)    (Quad)   (Total)
    R1        2.59221   0.00002   0.00000   0.00000   0.00000   2.59221
    R2        2.58893  -0.00011   0.00000  -0.00037  -0.00037   2.58856
    R3        2.64141   0.00011   0.00000   0.00039   0.00039   2.64181
    R4        2.04758   0.00001   0.00000  -0.00005  -0.00005   2.04754
    R5        2.63133   0.00000   0.00000  -0.00009  -0.00009   2.63124
    R6        2.04716   0.00007   0.00000   0.00022   0.00022   2.04739
    R7        2.63042   0.00010   0.00000   0.00027   0.00027   2.63070
    R8        2.04644   0.00005   0.00000   0.00016   0.00016   2.04660
    R9        2.63317   0.00003   0.00000   0.00001   0.00001   2.63318
   R10        2.04729   0.00002   0.00000  -0.00001  -0.00001   2.04728
   R11        3.28926   0.00011   0.00000   0.00064   0.00064   3.28990
    A1        2.17383   0.00015   0.00000   0.00073   0.00073   2.17456
    A2        2.04367  -0.00020   0.00000  -0.00118  -0.00118   2.04248
    A3        2.12263   0.00015   0.00000   0.00109   0.00109   2.12372
    A4        2.11688   0.00005   0.00000   0.00009   0.00009   2.11698
    A5        2.09459   0.00007   0.00000   0.00055   0.00055   2.09514
    A6        2.09055  -0.00004   0.00000  -0.00022  -0.00022   2.09032
    A7        2.09805  -0.00003   0.00000  -0.00032  -0.00032   2.09773
    A8        2.11160   0.00006   0.00000   0.00039   0.00039   2.11198
    A9        2.09190  -0.00008   0.00000  -0.00071  -0.00071   2.09119
   A10        2.07969   0.00002   0.00000   0.00033   0.00033   2.08001
   A11        2.07965  -0.00015   0.00000  -0.00097  -0.00097   2.07867
   A12        2.11639   0.00006   0.00000   0.00030   0.00030   2.11669
   A13        2.08714   0.00009   0.00000   0.00068   0.00068   2.08782
   A14        2.06304   0.00007   0.00000   0.00050   0.00050   2.06354
   A15        2.11198  -0.00009   0.00000  -0.00064  -0.00064   2.11133
   A16        2.10817   0.00002   0.00000   0.00014   0.00014   2.10831
    D1        0.00000   0.00000   0.00000  -0.00000   0.00000   0.00000
    D2        3.14159  -0.00000   0.00000   0.00000   0.00000   3.14159
    D3        0.00000   0.00000   0.00000   0.00000   0.00000   0.00000
    D4        3.14159   0.00000   0.00000   0.00000   0.00000   3.14159
    D5        0.00000  -0.00000   0.00000  -0.00000   0.00000   0.00000
    D6        3.14159  -0.00000   0.00000  -0.00000   0.00000   3.14159
    D7        3.14159   0.00000   0.00000  -0.00000   0.00000   3.14159
    D8        0.00000   0.00000   0.00000  -0.00000   0.00000   0.00000
    D9        0.00000  -0.00000   0.00000   0.00000   0.00000   0.00000
   D10        3.14159   0.00000   0.00000   0.00000   0.00000   3.14159
   D11        3.14159   0.00000   0.00000   0.00000   0.00000   3.14159
   D12        0.00000   0.00000   0.00000   0.00000   0.00000   0.00000
   D13        0.00000  -0.00000   0.00000  -0.00000   0.00000   0.00000
   D14        3.14159   0.00000   0.00000  -0.00000   0.00000   3.14159
   D15        3.14159   0.00000   0.00000   0.00000   0.00000   3.14159
   D16        0.00000  -0.00000   0.00000  -0.00000   0.00000   0.00000
   D17        0.00000  -0.00000   0.00000  -0.00000   0.00000   0.00000
   D18        3.14159  -0.00000   0.00000  -0.00000   0.00000   3.14159
   D19        3.14159  -0.00000   0.00000   0.00000   0.00000   3.14159
   D20        0.00000  -0.00000   0.00000   0.00000   0.00000   0.00000
         Item               Value     Threshold  Converged?
 Maximum Force            0.000196     0.000450     YES
 RMS     Force            0.000066     0.000300     YES
 Maximum Displacement     0.001367     0.001800     YES
 RMS     Displacement     0.000517     0.001200     YES
 Predicted change in Energy=-5.878194D-07
 Optimization completed.
    -- Stationary point found.
                           ----------------------------
                           !   Optimized Parameters   !
                           ! (Angstroms and Degrees)  !
 --------------------------                            --------------------------
 ! Name  Definition              Value          Derivative Info.                !
 --------------------------------------------------------------------------------
 ! R1    R(1,2)                  1.3717         -DE/DX =    0.0                 !
 ! R2    R(1,6)                  1.37           -DE/DX =   -0.0001              !
 ! R3    R(2,3)                  1.3978         -DE/DX =    0.0001              !
 ! R4    R(2,8)                  1.0835         -DE/DX =    0.0                 !
 ! R5    R(3,4)                  1.3924         -DE/DX =    0.0                 !
 ! R6    R(3,9)                  1.0833         -DE/DX =    0.0001              !
 ! R7    R(4,5)                  1.392          -DE/DX =    0.0001              !
 ! R8    R(4,10)                 1.0829         -DE/DX =    0.0001              !
 ! R9    R(5,6)                  1.3934         -DE/DX =    0.0                 !
 ! R10   R(5,11)                 1.0834         -DE/DX =    0.0                 !
 ! R11   R(6,7)                  1.7406         -DE/DX =    0.0001              !
 ! A1    A(2,1,6)              124.5512         -DE/DX =    0.0002              !
 ! A2    A(1,2,3)              117.0935         -DE/DX =   -0.0002              !
 ! A3    A(1,2,8)              121.618          -DE/DX =    0.0001              !
 ! A4    A(3,2,8)              121.2885         -DE/DX =    0.0                 !
 ! A5    A(2,3,4)              120.0111         -DE/DX =    0.0001              !
 ! A6    A(2,3,9)              119.7794         -DE/DX =    0.0                 !
 ! A7    A(4,3,9)              120.2094         -DE/DX =    0.0                 !
 ! A8    A(3,4,5)              120.9855         -DE/DX =    0.0001              !
 ! A9    A(3,4,10)             119.8572         -DE/DX =   -0.0001              !
 ! A10   A(5,4,10)             119.1573         -DE/DX =    0.0                 !
 ! A11   A(4,5,6)              119.1551         -DE/DX =   -0.0002              !
 ! A12   A(4,5,11)             121.2604         -DE/DX =    0.0001              !
 ! A13   A(6,5,11)             119.5845         -DE/DX =    0.0001              !
 ! A14   A(1,6,5)              118.2035         -DE/DX =    0.0001              !
 ! A15   A(1,6,7)              121.0074         -DE/DX =   -0.0001              !
 ! A16   A(5,6,7)              120.7891         -DE/DX =    0.0                 !
 ! D1    D(6,1,2,3)              0.0            -DE/DX =    0.0                 !
 ! D2    D(6,1,2,8)            180.0            -DE/DX =    0.0                 !
 ! D3    D(2,1,6,5)              0.0            -DE/DX =    0.0                 !
 ! D4    D(2,1,6,7)            180.0            -DE/DX =    0.0                 !
 ! D5    D(1,2,3,4)              0.0            -DE/DX =    0.0                 !
 ! D6    D(1,2,3,9)            180.0            -DE/DX =    0.0                 !
 ! D7    D(8,2,3,4)            180.0            -DE/DX =    0.0                 !
 ! D8    D(8,2,3,9)              0.0            -DE/DX =    0.0                 !
 ! D9    D(2,3,4,5)              0.0            -DE/DX =    0.0                 !
 ! D10   D(2,3,4,10)           180.0            -DE/DX =    0.0                 !
 ! D11   D(9,3,4,5)            180.0            -DE/DX =    0.0                 !
 ! D12   D(9,3,4,10)             0.0            -DE/DX =    0.0                 !
 ! D13   D(3,4,5,6)              0.0            -DE/DX =    0.0                 !
 ! D14   D(3,4,5,11)           180.0            -DE/DX =    0.0                 !
 ! D15   D(10,4,5,6)           180.0            -DE/DX =    0.0                 !
 ! D16   D(10,4,5,11)            0.0            -DE/DX =    0.0                 !
 ! D17   D(4,5,6,1)              0.0            -DE/DX =    0.0                 !
 ! D18   D(4,5,6,7)            180.0            -DE/DX =    0.0                 !
 ! D19   D(11,5,6,1)           180.0            -DE/DX =    0.0                 !
 ! D20   D(11,5,6,7)             0.0            -DE/DX =    0.0                 !
 --------------------------------------------------------------------------------
 GradGradGradGradGradGradGradGradGradGradGradGradGradGradGradGradGradGrad


 ----------------------------------------------------------------------

 Electric dipole moment (input orientation):
 (Debye = 10**-18 statcoulomb cm , SI units = C m)
                  (au)            (Debye)         (10**-30 SI)
   Tot        0.913697D+00      0.232239D+01      0.774665D+01
   x          0.888880D+00      0.225931D+01      0.753624D+01
   y          0.211508D+00      0.537599D+00      0.179324D+01
   z          0.000000D+00      0.000000D+00      0.000000D+00

 Dipole polarizability, Alpha (input orientation).
 (esu units = cm**3 , SI units = C**2 m**2 J**-1)
 Alpha(0;0):
               (au)            (10**-24 esu)      (10**-40 SI)
   iso        0.757273D+02      0.112216D+02      0.124857D+02
   aniso      0.512626D+02      0.759634D+01      0.845206D+01
   xx         0.955317D+02      0.141563D+02      0.157510D+02
   yx         0.119631D+02      0.177274D+01      0.197244D+01
   yy         0.867696D+02      0.128579D+02      0.143064D+02
   zx         0.000000D+00      0.000000D+00      0.000000D+00
   zy         0.000000D+00      0.000000D+00      0.000000D+00
   zz         0.448805D+02      0.665060D+01      0.739979D+01

 ----------------------------------------------------------------------

 Dipole orientation:
     6         -0.37990657          1.59659082         -5.51115519
     6         -0.59120522          2.48459201         -3.08497290
     6         -0.17978011          0.75554174         -1.13095588
     6          0.41540379         -1.74577103         -1.69051075
     6          0.61070473         -2.56654043         -4.18195903
     6          0.20176007         -0.84791447         -6.13456245
    17          0.42531441         -1.78742127         -9.27885987
     1         -1.05648231          4.43995996         -2.69426391
     1         -0.32568242          1.36870904          0.81676652
     1          0.73321323         -3.08139318         -0.17293863
     1          1.07329418         -4.51061333         -4.62690870

 Electric dipole moment (dipole orientation):
 (Debye = 10**-18 statcoulomb cm , SI units = C m)
                  (au)            (Debye)         (10**-30 SI)
   Tot        0.913697D+00      0.232239D+01      0.774665D+01
   x          0.000000D+00      0.000000D+00      0.000000D+00
   y          0.000000D+00      0.000000D+00      0.000000D+00
   z          0.913697D+00      0.232239D+01      0.774665D+01

 Dipole polarizability, Alpha (dipole orientation).
 (esu units = cm**3 , SI units = C**2 m**2 J**-1)
 Alpha(0;0):
               (au)            (10**-24 esu)      (10**-40 SI)
   iso        0.757273D+02      0.112216D+02      0.124857D+02
   aniso      0.512626D+02      0.759634D+01      0.845206D+01
   xx         0.468616D+02      0.694417D+01      0.772643D+01
   yx        -0.832570D+01     -0.123374D+01     -0.137272D+01
   yy         0.798700D+02      0.118355D+02      0.131688D+02
   zx        -0.201572D+01     -0.298699D+00     -0.332348D+00
   zy         0.847125D+01      0.125531D+01      0.139672D+01
   zz         0.100450D+03      0.148852D+02      0.165620D+02

 ----------------------------------------------------------------------
 1\1\GINC-SH02-01N03\Freq\UM062X\6-311++G(d,p)\C6H4Cl1(2)\JLAPIER\10-De
 c-2025\0\\#N Geom=AllCheck Guess=TCheck SCRF=Check GenChk UM062X/6-311
 ++G(d,p) Freq\\Neutral Radical (removed 2) 1_\\0,2\C,-3.0382019871,0.1
 697802253,0.\C,-1.9010083571,0.9368899472,0.\C,-0.6773560165,0.2612769
 183,0.\C,-0.6504592757,-1.1309045189,0.\C,-1.829717718,-1.8704315932,0
 .\C,-3.0513297392,-1.2001617048,0.\Cl,-4.5517263959,-2.0824938835,0.\H
 ,-1.9460838841,2.0194867349,0.\H,0.2481308636,0.8243409746,0.\H,0.2989
 702543,-1.6517874894,0.\H,-1.8139877442,-2.9536956105,0.\\Version=ES64
 L-G16RevB.01\State=2-A'\HF=-691.1113219\S2=0.762473\S2-1=0.\S2A=0.7500
 7\RMSD=5.578e-09\RMSF=1.170e-04\ZeroPoint=0.0786617\Thermal=0.0841083\
 Dipole=0.8888797,0.2115077,0.\DipoleDeriv=-0.1674124,-0.02549,0.,-0.11
 28561,-0.1346256,0.,0.,0.,-0.0743519,-0.0504776,0.0322802,0.,0.0142568
 ,0.0328695,0.,0.,0.,-0.0757276,0.0199406,-0.006936,0.,0.0045682,0.0245
 009,0.,0.,0.,-0.1633589,0.0265454,-0.0722302,0.,-0.0392291,-0.0375084,
 0.,0.,0.,-0.124384,-0.1627732,-0.0722608,0.,-0.0692645,-0.0142343,0.,0
 .,0.,-0.1366974,0.8461211,0.4902131,0.,0.551845,0.3509283,0.,0.,0.,0.0
 351375,-0.6179312,-0.3149902,0.,-0.337439,-0.2784917,0.,0.,0.,-0.05479
 26,0.0867901,-0.0086472,0.,-0.0008987,-0.0137194,0.,0.,0.,0.1583501,-0
 .0283359,-0.063086,0.,-0.0488094,0.0373421,0.,0.,0.,0.1434218,-0.03169
 91,0.0438255,0.,0.0460416,0.0404247,0.,0.,0.,0.1504286,0.0792322,-0.00
 26784,0.,-0.0082149,-0.0074862,0.,0.,0.,0.1419744\Polar=95.5316836,11.
 9630565,86.769641,0.,0.,44.8804668\Quadrupole=0.9142743,2.6715244,-3.5
 857987,0.1224608,0.,0.\PG=CS [SG(C6H4Cl1)]\NImag=0\\0.43193311,0.14160
 765,0.60261817,0.,0.,0.07354887,-0.27281796,-0.10403391,0.,0.61941361,
 -0.14392515,-0.18681507,0.,0.02257251,0.74596813,0.,0.,-0.05146014,0.,
 0.,0.12644606,-0.06911494,-0.04485241,0.,-0.27305897,0.12998620,0.,0.7
 1530957,0.02373395,0.07280734,0.,0.04307798,-0.17052934,0.,0.04501729,
 0.68294477,0.,0.,0.01311991,0.,0.,-0.06115705,0.,0.,0.13021623,-0.0213
 1118,-0.03326199,0.,0.03319859,0.02972174,0.,-0.12990522,0.03968509,0.
 ,0.73242556,-0.03322686,-0.06833817,0.,0.08834338,-0.02123268,0.,-0.03
 420986,-0.33897972,0.,-0.03531368,0.68912965,0.,0.,-0.00521288,0.,0.,0
 .00653046,0.,0.,-0.06208862,0.,0.,0.13474796,0.03747198,0.09144717,0.,
 -0.07964946,-0.00153745,0.,0.04052902,-0.08488827,0.,-0.27924217,-0.05
 780912,0.,0.65316447,0.02504867,-0.03137585,0.,-0.00372007,0.00226006,
 0.,-0.02817474,-0.02968293,0.,-0.13430353,-0.19119231,0.,0.00786457,0.
 75496061,0.,0.,0.01365685,0.,0.,-0.00246819,0.,0.,0.00492201,0.,0.,-0.
 06074592,0.,0.,0.12901479,-0.09024507,-0.01162630,0.,0.04304174,-0.031
 04082,0.,-0.01834096,0.04034146,0.,-0.06071879,-0.03562514,0.,-0.26010
 519,0.13912550,0.,0.53267058,0.01573433,-0.35265240,0.,-0.07951007,-0.
 02999218,0.,0.03834132,-0.06377890,0.,0.03286874,0.07502805,0.,0.05089
 663,-0.17087219,0.,-0.02818205,0.62357373,0.,0.,-0.05607698,0.,0.,0.00
 465929,0.,0.,-0.00384434,0.,0.,0.00560119,0.,0.,-0.06327292,0.,0.,0.11
 961098,-0.01115784,-0.01945289,0.,0.00103565,0.00095147,0.,-0.00170691
 ,-0.00211433,0.,-0.00049496,0.00690904,0.,-0.03774867,-0.02553268,0.,-
 0.14257082,-0.05255680,0.,0.19309293,-0.03185234,-0.02164831,0.,0.0032
 3568,-0.00348619,0.,-0.00158931,0.00086748,0.,0.00055218,-0.00066386,0
 .,0.00330341,0.00550304,0.,-0.06613650,-0.06854717,0.,0.09332791,0.087
 12422,0.,0.,0.00156587,0.,0.,0.00411121,0.,0.,-0.00016976,0.,0.,0.0048
 7047,0.,0.,0.00556408,0.,0.,-0.02314454,0.,0.,0.01107324,0.00369242,-0
 .02482731,0.,-0.05438081,0.00959044,0.,0.00438242,0.02815043,0.,-0.004
 37721,0.00255523,0.,-0.00163046,0.00011355,0.,-0.00317400,-0.00380344,
 0.,-0.00038656,-0.00097859,0.,0.05479574,-0.00239008,-0.01316604,0.,0.
 01498265,-0.34161140,0.,-0.00249024,-0.00965397,0.,0.00290811,0.000901
 60,0.,-0.00032582,0.00059347,0.,-0.00114404,-0.00017738,0.,-0.00005183
 ,-0.00020275,0.,-0.01136247,0.36325095,0.,0.,-0.00079813,0.,0.,-0.0360
 2134,0.,0.,0.00577967,0.,0.,0.00664501,0.,0.,-0.00039131,0.,0.,0.00627
 164,0.,0.,-0.00033988,0.,0.,0.02356636,-0.00463136,0.00222489,0.,-0.01
 782121,-0.01508691,0.,-0.26759072,-0.12844043,0.,0.00480776,0.00314851
 ,0.,0.00153823,0.00047307,0.,0.00081404,0.00135634,0.,-0.00001038,-0.0
 0013471,0.,0.00094567,0.00003897,0.,0.28121770,0.00365031,0.00056529,0
 .,0.01524788,0.01005158,0.,-0.12759495,-0.13565491,0.,-0.02758584,-0.0
 0989391,0.,0.00099051,-0.00526076,0.,0.00059803,-0.00127342,0.,-0.0000
 8859,0.00019191,0.,-0.00079173,0.00068179,0.,0.13660081,0.14024841,0.,
 0.,0.00689502,0.,0.,0.00391427,0.,0.,-0.03707185,0.,0.,0.00305865,0.,0
 .,0.00677771,0.,0.,-0.00073292,0.,0.,-0.00061643,0.,0.,-0.00404770,0.,
 0.,0.02557266,0.00020654,-0.00106241,0.,0.00195066,-0.00035192,0.,0.00
 354869,-0.00217281,0.,-0.28021366,0.12163765,0.,-0.01818296,0.01456042
 ,0.,-0.00202125,-0.00292273,0.,-0.00131914,0.00002947,0.,0.00006495,-0
 .00018515,0.,0.00052932,0.00035228,0.,0.29466331,-0.00126474,-0.001155
 25,0.,-0.00009774,-0.00562879,0.,0.02836465,-0.00891805,0.,0.12176760,
 -0.12513848,0.,-0.01615155,0.01133120,0.,-0.00323544,-0.00036368,0.,-0
 .00104824,-0.00001128,0.,0.00132325,-0.00052908,0.,-0.00041877,0.00081
 873,0.,-0.12970215,0.12899405,0.,0.,-0.00117023,0.,0.,0.00660576,0.,0.
 ,0.00338440,0.,0.,-0.03692631,0.,0.,0.00324526,0.,0.,0.00724352,0.,0.,
 -0.00016633,0.,0.,-0.00009774,0.,0.,-0.00397050,0.,0.,0.02598081,-0.00
 402571,0.00383751,0.,-0.00091184,-0.00088012,0.,-0.00405197,-0.0023903
 6,0.,0.00583128,-0.02640916,0.,-0.05614476,0.00454525,0.,0.00064972,0.
 02777772,0.,0.00126670,0.00024281,0.,0.00006783,0.00001990,0.,0.000200
 94,-0.00137872,0.,0.00077352,0.00046314,0.,0.05634428,0.00288425,-0.00
 083970,0.,-0.00009829,0.00101588,0.,-0.00279795,0.00057824,0.,0.002961
 59,-0.00962019,0.,0.00620992,-0.34626434,0.,-0.00307471,-0.01094446,0.
 ,-0.00034305,0.00087291,0.,0.00003064,-0.00008719,0.,0.00023823,-0.000
 47471,0.,-0.00018265,0.00060064,0.,-0.00582797,0.36516292,0.,0.,0.0059
 3183,0.,0.,-0.00116034,0.,0.,0.00690939,0.,0.,0.00351998,0.,0.,-0.0363
 0236,0.,0.,0.00368508,0.,0.,-0.00274793,0.,0.,-0.00056660,0.,0.,0.0002
 2110,0.,0.,-0.00412865,0.,0.,0.02463849\\-0.00008404,0.00028335,0.,0.0
 0016329,-0.00033211,0.,0.00001130,0.00021165,0.,0.00005239,-0.00010962
 ,0.,0.00007406,0.00022835,0.,-0.00013648,-0.00025599,0.,0.00011153,0.0
 0002575,0.,-0.00004845,-0.00001154,0.,-0.00005845,-0.00003889,0.,-0.00
 006929,-0.00001710,0.,-0.00001587,0.00001614,0.\\\@


            ARSENIC

 FOR SMELTER FUMES HAVE I BEEN NAMED,
    I AM AN EVIL POISONOUS SMOKE...
 BUT WHEN FROM POISON I AM FREED,
    THROUGH ART AND SLEIGHT OF HAND,
 THEN CAN I CURE BOTH MAN AND BEAST,
    FROM DIRE DISEASE OFTTIMES DIRECT THEM;
 BUT PREPARE ME CORRECTLY, AND TAKE GREAT CARE
    THAT YOU FAITHFULLY KEEP WATCHFUL GUARD OVER ME;
 FOR ELSE I AM POISON, AND POISON REMAIN,
    THAT PIERCES THE HEART OF MANY A ONE.

 ATTRIBUTED TO THE PROBABLY MYTHICAL 15TH
 CENTURY MONK, BASILIUS VALENTINUS
 Job cpu time:       0 days  0 hours 34 minutes 39.5 seconds.
 Elapsed time:       0 days  0 hours  8 minutes 42.1 seconds.
 File lengths (MBytes):  RWF=    124 Int=      0 D2E=      0 Chk=     34 Scr=      1
 Normal termination of Gaussian 16 at Wed Dec 10 11:06:40 2025.
