 Entering Gaussian System, Link 0=g16
 Initial command:
 /share/software/user/restricted/gaussian/g16.B01/l1.exe "/home/users/jlapier/Chloroaromatics/Gau-6666.inp" -scrdir="/home/users/jlapier/Chloroaromatics/"
 Entering Link 1 = /share/software/user/restricted/gaussian/g16.B01/l1.exe PID=      6667.
  
 Copyright (c) 1988-2017, Gaussian, Inc.  All Rights Reserved.
  
 This is part of the Gaussian(R) 16 program.  It is based on
 the Gaussian(R) 09 system (copyright 2009, Gaussian, Inc.),
 the Gaussian(R) 03 system (copyright 2003, Gaussian, Inc.),
 the Gaussian(R) 98 system (copyright 1998, Gaussian, Inc.),
 the Gaussian(R) 94 system (copyright 1995, Gaussian, Inc.),
 the Gaussian 92(TM) system (copyright 1992, Gaussian, Inc.),
 the Gaussian 90(TM) system (copyright 1990, Gaussian, Inc.),
 the Gaussian 88(TM) system (copyright 1988, Gaussian, Inc.),
 the Gaussian 86(TM) system (copyright 1986, Carnegie Mellon
 University), and the Gaussian 82(TM) system (copyright 1983,
 Carnegie Mellon University). Gaussian is a federally registered
 trademark of Gaussian, Inc.
  
 This software contains proprietary and confidential information,
 including trade secrets, belonging to Gaussian, Inc.
  
 This software is provided under written license and may be
 used, copied, transmitted, or stored only in accord with that
 written license.
  
 The following legend is applicable only to US Government
 contracts under FAR:
  
                    RESTRICTED RIGHTS LEGEND
  
 Use, reproduction and disclosure by the US Government is
 subject to restrictions as set forth in subparagraphs (a)
 and (c) of the Commercial Computer Software - Restricted
 Rights clause in FAR 52.227-19.
  
 Gaussian, Inc.
 340 Quinnipiac St., Bldg. 40, Wallingford CT 06492
  
  
 ---------------------------------------------------------------
 Warning -- This program may not be used in any manner that
 competes with the business of Gaussian, Inc. or will provide
 assistance to any competitor of Gaussian, Inc.  The licensee
 of this program is prohibited from giving any competitor of
 Gaussian, Inc. access to this program.  By using this program,
 the user acknowledges that Gaussian, Inc. is engaged in the
 business of creating and licensing software in the field of
 computational chemistry and represents and warrants to the
 licensee that it is not a competitor of Gaussian, Inc. and that
 it will not use this program in any manner prohibited above.
 ---------------------------------------------------------------
  

 Cite this work as:
 Gaussian 16, Revision B.01,
 M. J. Frisch, G. W. Trucks, H. B. Schlegel, G. E. Scuseria, 
 M. A. Robb, J. R. Cheeseman, G. Scalmani, V. Barone, 
 G. A. Petersson, H. Nakatsuji, X. Li, M. Caricato, A. V. Marenich, 
 J. Bloino, B. G. Janesko, R. Gomperts, B. Mennucci, H. P. Hratchian, 
 J. V. Ortiz, A. F. Izmaylov, J. L. Sonnenberg, D. Williams-Young, 
 F. Ding, F. Lipparini, F. Egidi, J. Goings, B. Peng, A. Petrone, 
 T. Henderson, D. Ranasinghe, V. G. Zakrzewski, J. Gao, N. Rega, 
 G. Zheng, W. Liang, M. Hada, M. Ehara, K. Toyota, R. Fukuda, 
 J. Hasegawa, M. Ishida, T. Nakajima, Y. Honda, O. Kitao, H. Nakai, 
 T. Vreven, K. Throssell, J. A. Montgomery, Jr., J. E. Peralta, 
 F. Ogliaro, M. J. Bearpark, J. J. Heyd, E. N. Brothers, K. N. Kudin, 
 V. N. Staroverov, T. A. Keith, R. Kobayashi, J. Normand, 
 K. Raghavachari, A. P. Rendell, J. C. Burant, S. S. Iyengar, 
 J. Tomasi, M. Cossi, J. M. Millam, M. Klene, C. Adamo, R. Cammi, 
 J. W. Ochterski, R. L. Martin, K. Morokuma, O. Farkas, 
 J. B. Foresman, and D. J. Fox, Gaussian, Inc., Wallingford CT, 2016.
 
 ******************************************
 Gaussian 16:  ES64L-G16RevB.01 20-Dec-2017
                10-Dec-2025 
 ******************************************
 %mem=8GB
 %nprocshare=4
 Will use up to    4 processors via shared memory.
 %oldchk=geometry_chks/12-_2-ClBzNeutralRadical.chk
 %chk=frequency_chks/12-_2-ClBzNeutralRadical_Freq.chk
 Copying data from "geometry_chks/12-_2-ClBzNeutralRadical.chk" to current chk file "frequency_chks/12-_2-ClBzNeutralRadical_Freq.chk"
 IOpt=  2 FromEx=T IUOpen= 4 IOptOp= 5 NList=   0 IFRang= 0 IUIn= 4 IUOut= 2.
 -------------------------------------------------------
 # opt freq 6-311++g(d,p) guess=read geom=allcheck m062x
 -------------------------------------------------------
 1/18=20,19=15,26=3,29=7,38=1/1,3;
 2/9=110,12=2,40=1/2;
 3/5=4,6=6,7=1111,11=2,14=-4,25=1,30=1,71=1,74=-55,116=-2/1,2,3;
 4/5=1/1;
 5/5=2,38=6/2;
 6/7=2,8=2,9=2,10=2,28=1/1;
 7//1,2,3,16;
 1/18=20,19=15,26=3/3(2);
 2/9=110/2;
 99//99;
 2/9=110/2;
 3/5=4,6=6,7=1111,11=2,14=-2,25=1,30=1,71=1,74=-55/1,2,3;
 4/5=5,16=3,69=1/1;
 5/5=2,38=5/2;
 7//1,2,3,16;
 1/18=20,19=15,26=3/3(-5);
 2/9=110/2;
 6/7=2,8=2,9=2,10=2,19=2,28=1/1;
 99/9=1/99;
 Structure from the checkpoint file:  "frequency_chks/12-_2-ClBzNeutralRadical_Freq.chk"
 ------------------------------
 Neutral Radical (removed 1) _2
 ------------------------------
 Charge =  0 Multiplicity = 2
 Redundant internal coordinates found in file.  (old form).
 C,0,-3.12394522,0.2173064314,0.
 C,0,-1.917157606,0.951887785,0.
 C,0,-0.6959182883,0.2650131706,0.
 C,0,-0.6358646036,-1.1364004759,0.
 C,0,-1.8264952988,-1.8888264846,0.
 C,0,-2.9805434689,-1.1512121607,0.
 Cl,0,-4.6288635515,0.9745573016,0.
 H,0,-1.9399577551,2.0505773781,0.
 H,0,0.2402464146,0.8435971567,0.
 H,0,0.3359214918,-1.6486286317,0.
 H,0,-1.827292114,-2.9853514705,0.
 Recover connectivity data from disk.

 GradGradGradGradGradGradGradGradGradGradGradGradGradGradGradGradGradGrad
 Berny optimization.
 Initialization pass.
                           ----------------------------
                           !    Initial Parameters    !
                           ! (Angstroms and Degrees)  !
 --------------------------                            --------------------------
 ! Name  Definition              Value          Derivative Info.                !
 --------------------------------------------------------------------------------
 ! R1    R(1,2)                  1.4128         estimate D2E/DX2                !
 ! R2    R(1,6)                  1.376          estimate D2E/DX2                !
 ! R3    R(1,7)                  1.6847         estimate D2E/DX2                !
 ! R4    R(2,3)                  1.4012         estimate D2E/DX2                !
 ! R5    R(2,8)                  1.0989         estimate D2E/DX2                !
 ! R6    R(3,4)                  1.4027         estimate D2E/DX2                !
 ! R7    R(3,9)                  1.1005         estimate D2E/DX2                !
 ! R8    R(4,5)                  1.4085         estimate D2E/DX2                !
 ! R9    R(4,10)                 1.0985         estimate D2E/DX2                !
 ! R10   R(5,6)                  1.3696         estimate D2E/DX2                !
 ! R11   R(5,11)                 1.0965         estimate D2E/DX2                !
 ! A1    A(2,1,6)              115.3472         estimate D2E/DX2                !
 ! A2    A(2,1,7)              121.96           estimate D2E/DX2                !
 ! A3    A(6,1,7)              122.6928         estimate D2E/DX2                !
 ! A4    A(1,2,3)              119.3156         estimate D2E/DX2                !
 ! A5    A(1,2,8)              120.1404         estimate D2E/DX2                !
 ! A6    A(3,2,8)              120.544          estimate D2E/DX2                !
 ! A7    A(2,3,4)              121.8089         estimate D2E/DX2                !
 ! A8    A(2,3,9)              118.9273         estimate D2E/DX2                !
 ! A9    A(4,3,9)              119.2638         estimate D2E/DX2                !
 ! A10   A(3,4,5)              119.8373         estimate D2E/DX2                !
 ! A11   A(3,4,10)             120.2475         estimate D2E/DX2                !
 ! A12   A(5,4,10)             119.9152         estimate D2E/DX2                !
 ! A13   A(4,5,6)              115.1241         estimate D2E/DX2                !
 ! A14   A(4,5,11)             122.3327         estimate D2E/DX2                !
 ! A15   A(6,5,11)             122.5432         estimate D2E/DX2                !
 ! A16   A(1,6,5)              128.5668         estimate D2E/DX2                !
 ! D1    D(6,1,2,3)              0.0            estimate D2E/DX2                !
 ! D2    D(6,1,2,8)            180.0            estimate D2E/DX2                !
 ! D3    D(7,1,2,3)            180.0            estimate D2E/DX2                !
 ! D4    D(7,1,2,8)              0.0            estimate D2E/DX2                !
 ! D5    D(2,1,6,5)              0.0            estimate D2E/DX2                !
 ! D6    D(7,1,6,5)            180.0            estimate D2E/DX2                !
 ! D7    D(1,2,3,4)              0.0            estimate D2E/DX2                !
 ! D8    D(1,2,3,9)            180.0            estimate D2E/DX2                !
 ! D9    D(8,2,3,4)            180.0            estimate D2E/DX2                !
 ! D10   D(8,2,3,9)              0.0            estimate D2E/DX2                !
 ! D11   D(2,3,4,5)              0.0            estimate D2E/DX2                !
 ! D12   D(2,3,4,10)           180.0            estimate D2E/DX2                !
 ! D13   D(9,3,4,5)            180.0            estimate D2E/DX2                !
 ! D14   D(9,3,4,10)             0.0            estimate D2E/DX2                !
 ! D15   D(3,4,5,6)              0.0            estimate D2E/DX2                !
 ! D16   D(3,4,5,11)           180.0            estimate D2E/DX2                !
 ! D17   D(10,4,5,6)           180.0            estimate D2E/DX2                !
 ! D18   D(10,4,5,11)            0.0            estimate D2E/DX2                !
 ! D19   D(4,5,6,1)              0.0            estimate D2E/DX2                !
 ! D20   D(11,5,6,1)           180.0            estimate D2E/DX2                !
 --------------------------------------------------------------------------------
 Trust Radius=3.00D-01 FncErr=1.00D-07 GrdErr=1.00D-06 EigMax=2.50D+02 EigMin=1.00D-04
 Number of steps in this run=     57 maximum allowed number of steps=    100.
 GradGradGradGradGradGradGradGradGradGradGradGradGradGradGradGradGradGrad

                          Input orientation:                          
 ---------------------------------------------------------------------
 Center     Atomic      Atomic             Coordinates (Angstroms)
 Number     Number       Type             X           Y           Z
 ---------------------------------------------------------------------
      1          6           0       -3.123945    0.217306   -0.000000
      2          6           0       -1.917158    0.951888    0.000000
      3          6           0       -0.695918    0.265013    0.000000
      4          6           0       -0.635865   -1.136400    0.000000
      5          6           0       -1.826495   -1.888826    0.000000
      6          6           0       -2.980543   -1.151212    0.000000
      7         17           0       -4.628864    0.974557   -0.000000
      8          1           0       -1.939958    2.050577   -0.000000
      9          1           0        0.240246    0.843597    0.000000
     10          1           0        0.335921   -1.648629    0.000000
     11          1           0       -1.827292   -2.985351    0.000000
 ---------------------------------------------------------------------
                    Distance matrix (angstroms):
                    1          2          3          4          5
     1  C    0.000000
     2  C    1.412780   0.000000
     3  C    2.428496   1.401150   0.000000
     4  C    2.832502   2.450033   1.402700   0.000000
     5  C    2.473696   2.842161   2.432536   1.408455   0.000000
     6  C    1.376011   2.356654   2.687974   2.344726   1.369636
     7  Cl   1.684698   2.711801   3.996437   4.516656   4.006524
     8  H    2.182363   1.098926   2.176206   3.443470   3.941037
     9  H    3.421991   2.160120   1.100529   2.165170   3.426012
    10  H    3.930953   3.440792   2.174102   1.098520   2.175716
    11  H    3.455188   3.938265   3.441639   2.199573   1.096525
                    6          7          8          9         10
     6  C    0.000000
     7  Cl   2.689954   0.000000
     8  H    3.366641   2.896210   0.000000
     9  H    3.788503   4.870871   2.492006   0.000000
    10  H    3.353560   5.615175   4.343242   2.494062   0.000000
    11  H    2.166577   4.850740   5.037189   4.351501   2.542896
                   11
    11  H    0.000000
 Stoichiometry    C6H4Cl(2)
 Framework group  CS[SG(C6H4Cl)]
 Deg. of freedom    19
 Full point group                 CS      NOp   2
 Largest Abelian subgroup         CS      NOp   2
 Largest concise Abelian subgroup C1      NOp   1
                         Standard orientation:                         
 ---------------------------------------------------------------------
 Center     Atomic      Atomic             Coordinates (Angstroms)
 Number     Number       Type             X           Y           Z
 ---------------------------------------------------------------------
      1          6           0       -0.000000   -0.566685   -0.000000
      2          6           0       -1.185369    0.201981   -0.000000
      3          6           0       -1.096261    1.600295   -0.000000
      4          6           0        0.140375    2.262336    0.000000
      5          6           0        1.334812    1.515969    0.000000
      6          6           0        1.170841    0.156184    0.000000
      7         17           0       -0.029457   -2.251126   -0.000000
      8          1           0       -2.165408   -0.295174   -0.000000
      9          1           0       -2.023679    2.192798   -0.000000
     10          1           0        0.180337    3.360129    0.000000
     11          1           0        2.323137    1.990923    0.000000
 ---------------------------------------------------------------------
 Rotational constants (GHZ):           6.0714767           1.5717990           1.2485669
 Standard basis: 6-311++G(d,p) (5D, 7F)
 There are   149 symmetry adapted cartesian basis functions of A'  symmetry.
 There are    48 symmetry adapted cartesian basis functions of A"  symmetry.
 There are   142 symmetry adapted basis functions of A'  symmetry.
 There are    48 symmetry adapted basis functions of A"  symmetry.
   190 basis functions,   305 primitive gaussians,   197 cartesian basis functions
    29 alpha electrons       28 beta electrons
       nuclear repulsion energy       304.0738027037 Hartrees.
 NAtoms=   11 NActive=   11 NUniq=   11 SFac= 1.00D+00 NAtFMM=   60 NAOKFM=F Big=F
 Integral buffers will be    131072 words long.
 Raffenetti 2 integral format.
 Two-electron integral symmetry is turned on.
 One-electron integrals computed using PRISM.
 NBasis=   190 RedAO= T EigKep=  1.65D-06  NBF=   142    48
 NBsUse=   190 1.00D-06 EigRej= -1.00D+00 NBFU=   142    48
 Initial guess from the checkpoint file:  "frequency_chks/12-_2-ClBzNeutralRadical_Freq.chk"
 B after Tr=     0.000000   -0.000000    0.000000
         Rot=    1.000000    0.000000    0.000000    0.000000 Ang=   0.00 deg.
 Initial guess orbital symmetries:
 Alpha Orbitals:
       Occupied  (A') (A') (A') (A') (A') (A') (A') (A') (A') (A')
                 (A") (A') (A') (A") (A') (A') (A") (A") (A") (A")
                 (A') (A") (A') (A') (A') (A') (A') (A') (A')
       Virtual   (A') (A') (A') (A') (A') (A') (A') (A') (A') (A')
                 (A') (A') (A') (A') (A') (A') (A') (A') (A') (A')
                 (A') (A') (A') (A') (A') (A') (A') (A') (A') (A')
                 (A') (A') (A') (A') (A') (A') (A') (A') (A') (A')
                 (A') (A') (A') (A') (A') (A') (A') (A') (A') (A')
                 (A') (A') (A') (A') (A') (A') (A') (A') (A') (A')
                 (A') (A') (A') (A') (A') (A') (A') (A') (A') (A')
                 (A') (A') (A') (A') (A') (A') (A') (A') (A') (A')
                 (A') (A') (A') (A') (A') (A') (A') (A') (A') (A')
                 (A') (A') (A') (A') (A') (A') (A') (A') (A') (A')
                 (A') (A') (A') (A') (A') (A') (A') (A') (A') (A')
                 (A') (A') (A') (A') (A') (A') (A') (A') (A') (A')
                 (A") (A") (A") (A") (A") (A") (A") (A") (A") (A")
                 (A") (A") (A") (A") (A") (A") (A") (A") (A") (A")
                 (A") (A") (A") (A") (A") (A") (A") (A") (A") (A")
                 (A") (A") (A") (A") (A") (A") (A") (A") (A") (A")
                 (A")
 Beta  Orbitals:
       Occupied  (A') (A') (A') (A') (A') (A') (A') (A') (A') (A')
                 (A") (A') (A') (A") (A') (A") (A") (A') (A") (A")
                 (A') (A") (A') (A') (A') (A') (A') (A')
       Virtual   (A') (A') (A') (A') (A') (A') (A') (A') (A') (A')
                 (A') (A') (A') (A') (A') (A') (A') (A') (A') (A')
                 (A') (A') (A') (A') (A') (A') (A') (A') (A') (A')
                 (A') (A') (A') (A') (A') (A') (A') (A') (A') (A')
                 (A') (A') (A') (A') (A') (A') (A') (A') (A') (A')
                 (A') (A') (A') (A') (A') (A') (A') (A') (A') (A')
                 (A') (A') (A') (A') (A') (A') (A') (A') (A') (A')
                 (A') (A') (A') (A') (A') (A') (A') (A') (A') (A')
                 (A') (A') (A') (A') (A') (A') (A') (A') (A') (A')
                 (A') (A') (A') (A') (A') (A') (A') (A') (A') (A')
                 (A') (A') (A') (A') (A') (A') (A') (A') (A') (A')
                 (A') (A') (A') (A') (A') (A') (A') (A') (A') (A')
                 (A') (A") (A") (A") (A") (A") (A") (A") (A") (A")
                 (A") (A") (A") (A") (A") (A") (A") (A") (A") (A")
                 (A") (A") (A") (A") (A") (A") (A") (A") (A") (A")
                 (A") (A") (A") (A") (A") (A") (A") (A") (A") (A")
                 (A") (A")
 Initial guess <Sx>= 0.0000 <Sy>= 0.0000 <Sz>= 0.5000 <S**2>= 0.7721 S= 0.5110
 Keep R1 and R2 ints in memory in symmetry-blocked form, NReq=262273818.
 Requested convergence on RMS density matrix=1.00D-08 within 128 cycles.
 Requested convergence on MAX density matrix=1.00D-06.
 Requested convergence on             energy=1.00D-06.
 No special actions if energy rises.
 EnCoef did     6 forward-backward iterations
 SCF Done:  E(UM062X) =  -691.108074388     A.U. after   26 cycles
            NFock= 26  Conv=0.42D-08     -V/T= 2.0029
 <Sx>= 0.0000 <Sy>= 0.0000 <Sz>= 0.5000 <S**2>= 0.7625 S= 0.5062
 <L.S>=  0.00000000000    
 Annihilation of the first spin contaminant:
 S**2 before annihilation     0.7625,   after     0.7501

 **********************************************************************

            Population analysis using the SCF Density.

 **********************************************************************

 Orbital symmetries:
 Alpha Orbitals:
       Occupied  (A') (A') (A') (A') (A') (A') (A') (A') (A') (A")
                 (A') (A') (A') (A') (A') (A') (A') (A') (A') (A')
                 (A') (A") (A') (A') (A") (A') (A") (A') (A")
       Virtual   (A") (A') (A") (A') (A') (A') (A') (A") (A') (A')
                 (A") (A') (A") (A') (A') (A") (A') (A') (A') (A")
                 (A') (A") (A') (A') (A") (A') (A') (A') (A') (A")
                 (A') (A') (A') (A') (A') (A') (A') (A') (A') (A')
                 (A') (A') (A') (A') (A') (A') (A") (A') (A') (A")
                 (A') (A') (A') (A") (A") (A') (A') (A') (A") (A")
                 (A') (A") (A') (A') (A') (A') (A') (A') (A") (A')
                 (A') (A') (A') (A") (A') (A') (A') (A') (A') (A")
                 (A") (A') (A") (A") (A') (A') (A") (A') (A") (A')
                 (A') (A') (A') (A") (A') (A") (A') (A') (A") (A')
                 (A") (A') (A') (A') (A") (A") (A') (A") (A') (A')
                 (A') (A") (A') (A") (A') (A") (A") (A') (A') (A')
                 (A') (A') (A') (A') (A") (A') (A') (A') (A') (A')
                 (A') (A") (A") (A') (A") (A") (A') (A") (A') (A')
                 (A') (A') (A') (A') (A') (A') (A') (A') (A') (A')
                 (A') (A') (A') (A') (A') (A') (A') (A") (A') (A')
                 (A')
 Beta  Orbitals:
       Occupied  (A') (A') (A') (A') (A') (A') (A') (A') (A') (A")
                 (A') (A') (A') (A') (A') (A') (A') (A') (A') (A')
                 (A') (A") (A') (A') (A") (A') (A") (A")
       Virtual   (A') (A") (A') (A') (A") (A') (A') (A') (A") (A')
                 (A') (A") (A') (A") (A') (A') (A") (A') (A') (A')
                 (A") (A') (A") (A') (A') (A") (A') (A') (A') (A')
                 (A") (A') (A') (A') (A') (A') (A') (A') (A') (A')
                 (A') (A') (A') (A') (A') (A') (A') (A") (A') (A')
                 (A") (A') (A') (A') (A') (A") (A") (A') (A') (A")
                 (A") (A") (A') (A') (A') (A') (A') (A') (A') (A")
                 (A') (A') (A') (A') (A') (A") (A') (A') (A') (A')
                 (A") (A") (A') (A") (A") (A') (A') (A') (A") (A")
                 (A') (A') (A') (A') (A") (A") (A') (A') (A') (A")
                 (A') (A") (A') (A') (A') (A") (A") (A') (A') (A")
                 (A') (A') (A") (A') (A") (A') (A") (A") (A') (A')
                 (A') (A') (A') (A') (A') (A") (A') (A') (A') (A')
                 (A') (A') (A") (A") (A') (A") (A") (A') (A") (A')
                 (A') (A') (A') (A') (A') (A') (A') (A') (A') (A')
                 (A') (A') (A') (A') (A') (A') (A') (A') (A") (A')
                 (A') (A')
 The electronic state is 2-A'.
 Alpha  occ. eigenvalues -- -102.68557 -10.61959 -10.58505 -10.57303 -10.57088
 Alpha  occ. eigenvalues --  -10.56916 -10.56516  -9.82902  -7.55452  -7.54723
 Alpha  occ. eigenvalues --   -7.54720  -1.01748  -0.95548  -0.86206  -0.83870
 Alpha  occ. eigenvalues --   -0.71028  -0.68692  -0.60115  -0.55285  -0.54101
 Alpha  occ. eigenvalues --   -0.51698  -0.48607  -0.47223  -0.44213  -0.41328
 Alpha  occ. eigenvalues --   -0.38786  -0.33222  -0.31833  -0.30864
 Alpha virt. eigenvalues --   -0.00474  -0.00356   0.00489   0.00968   0.01867
 Alpha virt. eigenvalues --    0.03463   0.04455   0.06190   0.06799   0.07534
 Alpha virt. eigenvalues --    0.08651   0.09146   0.09354   0.09985   0.11963
 Alpha virt. eigenvalues --    0.12365   0.12882   0.13234   0.13534   0.13810
 Alpha virt. eigenvalues --    0.14226   0.14691   0.15057   0.15707   0.16485
 Alpha virt. eigenvalues --    0.16589   0.18528   0.18822   0.20630   0.20738
 Alpha virt. eigenvalues --    0.21550   0.22169   0.24098   0.24752   0.26308
 Alpha virt. eigenvalues --    0.26735   0.27808   0.28624   0.30204   0.31037
 Alpha virt. eigenvalues --    0.34659   0.35356   0.35937   0.38394   0.47226
 Alpha virt. eigenvalues --    0.47738   0.48407   0.49978   0.52673   0.55252
 Alpha virt. eigenvalues --    0.56464   0.57294   0.57956   0.59153   0.60918
 Alpha virt. eigenvalues --    0.61254   0.62124   0.63576   0.64010   0.64338
 Alpha virt. eigenvalues --    0.68822   0.70292   0.73697   0.75035   0.76913
 Alpha virt. eigenvalues --    0.80020   0.80891   0.86446   0.87445   0.87822
 Alpha virt. eigenvalues --    0.88324   0.89564   0.91441   0.92236   0.92318
 Alpha virt. eigenvalues --    0.93245   0.97095   0.99750   1.00784   1.02611
 Alpha virt. eigenvalues --    1.04243   1.07216   1.12686   1.15929   1.19773
 Alpha virt. eigenvalues --    1.23456   1.25858   1.27021   1.33990   1.38182
 Alpha virt. eigenvalues --    1.50041   1.53799   1.54537   1.58662   1.59508
 Alpha virt. eigenvalues --    1.60215   1.66142   1.67620   1.71948   1.74166
 Alpha virt. eigenvalues --    1.75574   1.80098   1.84203   1.89840   1.90553
 Alpha virt. eigenvalues --    1.94044   1.94955   1.96812   1.97206   2.01133
 Alpha virt. eigenvalues --    2.04341   2.05755   2.12262   2.24079   2.27323
 Alpha virt. eigenvalues --    2.32032   2.34206   2.36888   2.43100   2.44371
 Alpha virt. eigenvalues --    2.48240   2.52835   2.55308   2.60345   2.69450
 Alpha virt. eigenvalues --    2.69508   2.71649   2.73824   2.75351   2.77613
 Alpha virt. eigenvalues --    2.79502   2.81287   2.84039   2.85801   2.92413
 Alpha virt. eigenvalues --    2.93792   3.03295   3.11243   3.16092   3.27387
 Alpha virt. eigenvalues --    3.35610   3.40555   3.50760   3.54581   3.67643
 Alpha virt. eigenvalues --    3.91351   4.03762   4.10167   4.15005   4.78894
 Alpha virt. eigenvalues --    9.98571  23.52459  23.94730  24.00254  24.08117
 Alpha virt. eigenvalues --   24.14428  24.22531  25.93341  26.21952  26.71555
 Alpha virt. eigenvalues --  216.08669
  Beta  occ. eigenvalues -- -102.68528 -10.61991 -10.57545 -10.57243 -10.57107
  Beta  occ. eigenvalues --  -10.56835 -10.56542  -9.82889  -7.55380  -7.54729
  Beta  occ. eigenvalues --   -7.54699  -1.01151  -0.95094  -0.85368  -0.82810
  Beta  occ. eigenvalues --   -0.70318  -0.67532  -0.59198  -0.54591  -0.53285
  Beta  occ. eigenvalues --   -0.51278  -0.48033  -0.45905  -0.43813  -0.41263
  Beta  occ. eigenvalues --   -0.38461  -0.32337  -0.30327
  Beta virt. eigenvalues --   -0.06482  -0.00524  -0.00339   0.01117   0.01579
  Beta virt. eigenvalues --    0.02194   0.03530   0.05029   0.06135   0.06627
  Beta virt. eigenvalues --    0.06966   0.08685   0.09060   0.09063   0.10280
  Beta virt. eigenvalues --    0.12055   0.12485   0.12904   0.12979   0.13579
  Beta virt. eigenvalues --    0.13738   0.14384   0.14734   0.15123   0.15574
  Beta virt. eigenvalues --    0.16422   0.16773   0.18251   0.18540   0.20668
  Beta virt. eigenvalues --    0.21344   0.21631   0.22366   0.24208   0.24828
  Beta virt. eigenvalues --    0.25494   0.26619   0.27900   0.29042   0.30572
  Beta virt. eigenvalues --    0.31288   0.34778   0.35958   0.36039   0.39070
  Beta virt. eigenvalues --    0.47231   0.47675   0.48505   0.49848   0.52886
  Beta virt. eigenvalues --    0.55382   0.55514   0.57110   0.57975   0.58589
  Beta virt. eigenvalues --    0.59361   0.61011   0.62373   0.63647   0.64032
  Beta virt. eigenvalues --    0.64400   0.70155   0.70363   0.73720   0.74878
  Beta virt. eigenvalues --    0.76339   0.80380   0.80879   0.86197   0.87731
  Beta virt. eigenvalues --    0.87764   0.88519   0.89749   0.91563   0.92059
  Beta virt. eigenvalues --    0.92290   0.92904   0.97386   0.99377   1.00772
  Beta virt. eigenvalues --    1.02842   1.04751   1.07052   1.12774   1.16325
  Beta virt. eigenvalues --    1.20634   1.22564   1.26725   1.27977   1.34682
  Beta virt. eigenvalues --    1.39019   1.50489   1.54337   1.55619   1.58694
  Beta virt. eigenvalues --    1.60580   1.60742   1.66216   1.67911   1.72312
  Beta virt. eigenvalues --    1.75259   1.75619   1.80392   1.84641   1.90130
  Beta virt. eigenvalues --    1.90704   1.94470   1.95195   1.97456   1.97506
  Beta virt. eigenvalues --    2.01618   2.05002   2.05927   2.12765   2.24122
  Beta virt. eigenvalues --    2.27666   2.32120   2.34599   2.37692   2.43446
  Beta virt. eigenvalues --    2.44454   2.48915   2.52921   2.55480   2.60703
  Beta virt. eigenvalues --    2.69572   2.69748   2.71800   2.74280   2.75777
  Beta virt. eigenvalues --    2.77650   2.79580   2.81706   2.84007   2.86446
  Beta virt. eigenvalues --    2.92558   2.93592   3.06397   3.11303   3.16380
  Beta virt. eigenvalues --    3.27485   3.35969   3.40776   3.50806   3.55139
  Beta virt. eigenvalues --    3.68347   3.91689   4.03767   4.10300   4.15311
  Beta virt. eigenvalues --    4.79091   9.98576  23.52625  23.94807  24.00366
  Beta virt. eigenvalues --   24.08204  24.14578  24.23012  25.93346  26.21990
  Beta virt. eigenvalues --   26.71732 216.08713
          Condensed to atoms (all electrons):
               1          2          3          4          5          6
     1  C   12.217934  -3.932539   0.692844  -2.070259   0.491535  -0.427797
     2  C   -3.932539  15.295832  -1.548487   3.027416  -4.937838  -2.521533
     3  C    0.692844  -1.548487   7.422874  -1.568635   2.342602  -1.314240
     4  C   -2.070259   3.027416  -1.568635   8.066604  -2.190028   0.255207
     5  C    0.491535  -4.937838   2.342602  -2.190028  11.036169  -0.400714
     6  C   -0.427797  -2.521533  -1.314240   0.255207  -0.400714  10.736176
     7  Cl  -1.002650   0.491630   0.087406   0.118347   0.031132  -0.425307
     8  H   -0.182359   0.573795  -0.026568   0.098280  -0.087314  -0.087312
     9  H    0.040988  -0.046976   0.326262  -0.064763   0.028433   0.057944
    10  H    0.008553   0.020400  -0.025288   0.354571  -0.029259  -0.010637
    11  H   -0.087239  -0.042544   0.024848  -0.023351   0.439982   0.017335
               7          8          9         10         11
     1  C   -1.002650  -0.182359   0.040988   0.008553  -0.087239
     2  C    0.491630   0.573795  -0.046976   0.020400  -0.042544
     3  C    0.087406  -0.026568   0.326262  -0.025288   0.024848
     4  C    0.118347   0.098280  -0.064763   0.354571  -0.023351
     5  C    0.031132  -0.087314   0.028433  -0.029259   0.439982
     6  C   -0.425307  -0.087312   0.057944  -0.010637   0.017335
     7  Cl  17.352368   0.032775  -0.011287   0.001760  -0.004045
     8  H    0.032775   0.482482  -0.007292   0.001674  -0.000407
     9  H   -0.011287  -0.007292   0.465242  -0.000763   0.001212
    10  H    0.001760   0.001674  -0.000763   0.466332   0.000807
    11  H   -0.004045  -0.000407   0.001212   0.000807   0.477362
          Atomic-Atomic Spin Densities.
               1          2          3          4          5          6
     1  C    0.439603  -0.675323   0.432925  -0.283215   0.818722  -0.569371
     2  C   -0.675323   0.500244  -0.385638   0.262083  -0.290542   0.551417
     3  C    0.432925  -0.385638   0.249837  -0.234834   0.384997  -0.437551
     4  C   -0.283215   0.262083  -0.234834   0.299048  -0.352489   0.308870
     5  C    0.818722  -0.290542   0.384997  -0.352489   0.515707  -0.933894
     6  C   -0.569371   0.551417  -0.437551   0.308870  -0.933894   1.760163
     7  Cl  -0.001505   0.065478  -0.005690   0.012545  -0.026276  -0.050505
     8  H   -0.009931   0.008705  -0.028808   0.000633  -0.004958   0.030815
     9  H   -0.000682  -0.003373   0.005918   0.004369  -0.003982  -0.001052
    10  H   -0.013204   0.012939  -0.010576   0.004509  -0.020065   0.020977
    11  H   -0.007955  -0.002925   0.001811  -0.015405   0.009911   0.007894
               7          8          9         10         11
     1  C   -0.001505  -0.009931  -0.000682  -0.013204  -0.007955
     2  C    0.065478   0.008705  -0.003373   0.012939  -0.002925
     3  C   -0.005690  -0.028808   0.005918  -0.010576   0.001811
     4  C    0.012545   0.000633   0.004369   0.004509  -0.015405
     5  C   -0.026276  -0.004958  -0.003982  -0.020065   0.009911
     6  C   -0.050505   0.030815  -0.001052   0.020977   0.007894
     7  Cl   0.027136  -0.001795  -0.000379  -0.000050  -0.000786
     8  H   -0.001795   0.014641  -0.000232   0.000125   0.000032
     9  H   -0.000379  -0.000232   0.001946  -0.000204  -0.000048
    10  H   -0.000050   0.000125  -0.000204   0.009976   0.001890
    11  H   -0.000786   0.000032  -0.000048   0.001890   0.033054
 Mulliken charges and spin densities:
               1          2
     1  C    0.250988   0.130064
     2  C   -0.379157   0.043067
     3  C   -0.413619  -0.027609
     4  C   -0.003390   0.006114
     5  C   -0.724702   0.097131
     6  C    0.120877   0.687764
     7  Cl   0.327869   0.018173
     8  H    0.202245   0.009226
     9  H    0.210999   0.002281
    10  H    0.211849   0.006316
    11  H    0.196041   0.027472
 Sum of Mulliken charges =  -0.00000   1.00000
 Mulliken charges and spin densities with hydrogens summed into heavy atoms:
               1          2
     1  C    0.250988   0.130064
     2  C   -0.176912   0.052293
     3  C   -0.202620  -0.025328
     4  C    0.208460   0.012431
     5  C   -0.528661   0.124603
     6  C    0.120877   0.687764
     7  Cl   0.327869   0.018173
 Electronic spatial extent (au):  <R**2>=            879.4605
 Charge=              0.0000 electrons
 Dipole moment (field-independent basis, Debye):
    X=             -0.6171    Y=              1.9558    Z=              0.0000  Tot=              2.0508
 Quadrupole moment (field-independent basis, Debye-Ang):
   XX=            -43.5255   YY=            -43.9760   ZZ=            -51.2654
   XY=              1.2601   XZ=             -0.0000   YZ=              0.0000
 Traceless Quadrupole moment (field-independent basis, Debye-Ang):
   XX=              2.7301   YY=              2.2797   ZZ=             -5.0098
   XY=              1.2601   XZ=             -0.0000   YZ=              0.0000
 Octapole moment (field-independent basis, Debye-Ang**2):
  XXX=             -5.4645  YYY=              3.6061  ZZZ=             -0.0000  XYY=              0.6662
  XXY=              4.2496  XXZ=             -0.0000  XZZ=             -0.4099  YZZ=             -7.6348
  YYZ=             -0.0000  XYZ=             -0.0000
 Hexadecapole moment (field-independent basis, Debye-Ang**3):
 XXXX=           -269.3043 YYYY=           -771.6735 ZZZZ=            -60.8277 XXXY=             -4.4435
 XXXZ=             -0.0000 YYYX=            -10.3396 YYYZ=             -0.0000 ZZZX=             -0.0000
 ZZZY=             -0.0000 XXYY=           -176.2507 XXZZ=            -65.4997 YYZZ=           -163.1901
 XXYZ=             -0.0000 YYXZ=             -0.0000 ZZXY=             -4.7148
 N-N= 3.040738027037D+02 E-N=-2.237459978401D+03  KE= 6.891021179002D+02
 Symmetry A'   KE= 6.368051802034D+02
 Symmetry A"   KE= 5.229693769676D+01
 Symmetry A'   SP= 9.999999999999D-01
 Symmetry A"   SP=-9.507444659974D-15
                          Isotropic Fermi Contact Couplings
        Atom                 a.u.       MegaHertz       Gauss      10(-4) cm-1
     1  C(13)             -0.01171     -13.16538      -4.69774      -4.39150
     2  C(13)              0.03249      36.52131      13.03171      12.18220
     3  C(13)             -0.00587      -6.60072      -2.35530      -2.20176
     4  C(13)              0.04867      54.71164      19.52247      18.24984
     5  C(13)              0.00373       4.19386       1.49647       1.39892
     6  C(13)              0.41742     469.25682     167.44250     156.52723
     7  Cl(35)             0.02345      10.28414       3.66964       3.43042
     8  H(1)               0.00434      19.41979       6.92946       6.47775
     9  H(1)               0.00078       3.50392       1.25029       1.16878
    10  H(1)               0.00265      11.85084       4.22867       3.95301
    11  H(1)               0.01236      55.25939      19.71793      18.43255
 --------------------------------------------------------
       Center         ----  Spin Dipole Couplings  ----
                      3XX-RR        3YY-RR        3ZZ-RR
 --------------------------------------------------------
     1   Atom        0.095317      0.011279     -0.106596
     2   Atom        0.027132     -0.021845     -0.005287
     3   Atom        0.029133      0.023037     -0.052170
     4   Atom        0.018574     -0.007992     -0.010582
     5   Atom       -0.002723      0.102355     -0.099632
     6   Atom        0.520346     -0.121331     -0.399016
     7   Atom       -0.023517      0.154456     -0.130939
     8   Atom        0.008045     -0.003172     -0.004873
     9   Atom        0.001411      0.001295     -0.002706
    10   Atom       -0.004281      0.009817     -0.005535
    11   Atom       -0.005740      0.017753     -0.012013
 --------------------------------------------------------
                        XY            XZ            YZ
 --------------------------------------------------------
     1   Atom        0.065643      0.000000      0.000000
     2   Atom       -0.027023      0.000000      0.000000
     3   Atom       -0.006562      0.000000      0.000000
     4   Atom       -0.045325     -0.000000      0.000000
     5   Atom       -0.015439     -0.000000      0.000000
     6   Atom       -0.704247      0.000000     -0.000000
     7   Atom        0.092331      0.000000      0.000000
     8   Atom        0.003549      0.000000      0.000000
     9   Atom       -0.000169     -0.000000      0.000000
    10   Atom       -0.002377     -0.000000      0.000000
    11   Atom        0.011499     -0.000000     -0.000000
 --------------------------------------------------------


 ---------------------------------------------------------------------------------
              Anisotropic Spin Dipole Couplings in Principal Axis System
 ---------------------------------------------------------------------------------

       Atom             a.u.   MegaHertz   Gauss  10(-4) cm-1        Axes

              Baa    -0.1066   -14.304    -5.104    -4.771  0.0000  0.0000  1.0000
     1 C(13)  Bbb    -0.0246    -3.307    -1.180    -1.103 -0.4800  0.8772 -0.0000
              Bcc     0.1312    17.611     6.284     5.874  0.8772  0.4800 -0.0000
 
              Baa    -0.0338    -4.539    -1.620    -1.514  0.4053  0.9142 -0.0000
     2 C(13)  Bbb    -0.0053    -0.709    -0.253    -0.237  0.0000  0.0000  1.0000
              Bcc     0.0391     5.248     1.873     1.751  0.9142 -0.4053 -0.0000
 
              Baa    -0.0522    -7.001    -2.498    -2.335  0.0000  0.0000  1.0000
     3 C(13)  Bbb     0.0188     2.529     0.903     0.844  0.5379  0.8430  0.0000
              Bcc     0.0333     4.471     1.595     1.491  0.8430 -0.5379  0.0000
 
              Baa    -0.0419    -5.628    -2.008    -1.877  0.5995  0.8004 -0.0000
     4 C(13)  Bbb    -0.0106    -1.420    -0.507    -0.474  0.0000  0.0000  1.0000
              Bcc     0.0525     7.048     2.515     2.351  0.8004 -0.5995  0.0000
 
              Baa    -0.0996   -13.370    -4.771    -4.460  0.0000  0.0000  1.0000
     5 C(13)  Bbb    -0.0049    -0.663    -0.237    -0.221  0.9898  0.1424  0.0000
              Bcc     0.1046    14.033     5.007     4.681 -0.1424  0.9898 -0.0000
 
              Baa    -0.5744   -77.076   -27.503   -25.710  0.5410  0.8410 -0.0000
     6 C(13)  Bbb    -0.3990   -53.544   -19.106   -17.860  0.0000  0.0000  1.0000
              Bcc     0.9734   130.620    46.609    43.570  0.8410 -0.5410  0.0000
 
              Baa    -0.1309    -6.853    -2.445    -2.286  0.0000  0.0000  1.0000
     7 Cl(35) Bbb    -0.0628    -3.285    -1.172    -1.096  0.9203 -0.3912 -0.0000
              Bcc     0.1937    10.138     3.617     3.382  0.3912  0.9203 -0.0000
 
              Baa    -0.0049    -2.600    -0.928    -0.867  0.0000  0.0000  1.0000
     8 H(1)   Bbb    -0.0042    -2.241    -0.800    -0.748 -0.2784  0.9605 -0.0000
              Bcc     0.0091     4.841     1.727     1.615  0.9605  0.2784 -0.0000
 
              Baa    -0.0027    -1.444    -0.515    -0.482  0.0000  0.0000  1.0000
     9 H(1)   Bbb     0.0012     0.627     0.224     0.209  0.5809  0.8140 -0.0000
              Bcc     0.0015     0.817     0.292     0.273  0.8140 -0.5809  0.0000
 
              Baa    -0.0055    -2.953    -1.054    -0.985  0.0000  0.0000  1.0000
    10 H(1)   Bbb    -0.0047    -2.492    -0.889    -0.831  0.9868  0.1619  0.0000
              Bcc     0.0102     5.446     1.943     1.817 -0.1619  0.9868 -0.0000
 
              Baa    -0.0120    -6.410    -2.287    -2.138  0.0000  0.0000  1.0000
    11 H(1)   Bbb    -0.0104    -5.566    -1.986    -1.857  0.9259 -0.3777 -0.0000
              Bcc     0.0224    11.975     4.273     3.995  0.3777  0.9259 -0.0000
 

 ---------------------------------------------------------------------------------

 Calling FoFJK, ICntrl=      2127 FMM=F ISym2X=1 I1Cent= 0 IOpClX= 1 NMat=1 NMatS=1 NMatT=0.
 ***** Axes restored to original set *****
 -------------------------------------------------------------------
 Center     Atomic                   Forces (Hartrees/Bohr)
 Number     Number              X              Y              Z
 -------------------------------------------------------------------
      1        6           0.043273428   -0.011311384    0.000000000
      2        6          -0.002607654   -0.000560074   -0.000000000
      3        6           0.004048509    0.001477163    0.000000000
      4        6           0.001948399   -0.001788672    0.000000000
      5        6           0.007981274    0.005246638    0.000000000
      6        6          -0.012073992   -0.002923918   -0.000000000
      7       17          -0.023313890    0.011324655   -0.000000000
      8        1          -0.000754877   -0.010064572    0.000000000
      9        1          -0.009953577   -0.005827734   -0.000000000
     10        1          -0.008516297    0.005117375   -0.000000000
     11        1          -0.000031323    0.009310524   -0.000000000
 -------------------------------------------------------------------
 Cartesian Forces:  Max     0.043273428 RMS     0.010106802

 GradGradGradGradGradGradGradGradGradGradGradGradGradGradGradGradGradGrad
 Berny optimization.
 FormGI is forming the generalized inverse of G from B-inverse, IUseBI=4.
 Internal  Forces:  Max     0.025916240 RMS     0.006171619
 Search for a local minimum.
 Step number   1 out of a maximum of   57
 All quantities printed in internal units (Hartrees-Bohrs-Radians)
 Mixed Optimization -- RFO/linear search
 Second derivative matrix not updated -- first step.
 ITU=  0
     Eigenvalues ---    0.01984   0.02011   0.02026   0.02039   0.02063
     Eigenvalues ---    0.02093   0.02157   0.02375   0.16000   0.16000
     Eigenvalues ---    0.16000   0.16000   0.22000   0.22421   0.24433
     Eigenvalues ---    0.25000   0.33624   0.33801   0.33846   0.34069
     Eigenvalues ---    0.37797   0.40826   0.42649   0.43924   0.45109
     Eigenvalues ---    0.48654   0.50257
 RFO step:  Lambda=-5.00350944D-03 EMin= 1.98422991D-02
 Linear search not attempted -- first point.
 Iteration  1 RMS(Cart)=  0.01957180 RMS(Int)=  0.00015985
 Iteration  2 RMS(Cart)=  0.00018039 RMS(Int)=  0.00004257
 Iteration  3 RMS(Cart)=  0.00000002 RMS(Int)=  0.00004257
 ClnCor:  largest displacement from symmetrization is 2.56D-09 for atom     9.
 Variable       Old X    -DE/DX   Delta X   Delta X   Delta X     New X
                                 (Linear)    (Quad)   (Total)
    R1        2.66977  -0.01179   0.00000  -0.02690  -0.02688   2.64289
    R2        2.60028  -0.00545   0.00000  -0.01052  -0.01045   2.58983
    R3        3.18362   0.02592   0.00000   0.06767   0.06767   3.25129
    R4        2.64779  -0.00966   0.00000  -0.02147  -0.02152   2.62627
    R5        2.07667  -0.01005   0.00000  -0.02929  -0.02929   2.04738
    R6        2.65072  -0.01049   0.00000  -0.02327  -0.02334   2.62738
    R7        2.07970  -0.01153   0.00000  -0.03379  -0.03379   2.04591
    R8        2.66159  -0.00785   0.00000  -0.01741  -0.01743   2.64416
    R9        2.07590  -0.00992   0.00000  -0.02888  -0.02888   2.04702
   R10        2.58824  -0.00137   0.00000  -0.00226  -0.00221   2.58603
   R11        2.07213  -0.00931   0.00000  -0.02693  -0.02693   2.04520
    A1        2.01319   0.00617   0.00000   0.02404   0.02411   2.03730
    A2        2.12860  -0.00250   0.00000  -0.00975  -0.00979   2.11882
    A3        2.14139  -0.00366   0.00000  -0.01429  -0.01433   2.12706
    A4        2.08245   0.00183   0.00000   0.00640   0.00636   2.08881
    A5        2.09685  -0.00192   0.00000  -0.00927  -0.00925   2.08760
    A6        2.10389   0.00009   0.00000   0.00287   0.00289   2.10678
    A7        2.12597  -0.00173   0.00000  -0.00978  -0.00990   2.11607
    A8        2.07567   0.00058   0.00000   0.00315   0.00321   2.07888
    A9        2.08155   0.00115   0.00000   0.00663   0.00669   2.08824
   A10        2.09156   0.00002   0.00000  -0.00085  -0.00094   2.09062
   A11        2.09871  -0.00059   0.00000  -0.00308  -0.00303   2.09568
   A12        2.09292   0.00057   0.00000   0.00392   0.00397   2.09689
   A13        2.00929   0.00574   0.00000   0.02615   0.02617   2.03547
   A14        2.13511  -0.00283   0.00000  -0.01284  -0.01285   2.12226
   A15        2.13878  -0.00291   0.00000  -0.01331  -0.01332   2.12546
   A16        2.24391  -0.01202   0.00000  -0.04596  -0.04581   2.19810
    D1       -0.00000  -0.00000   0.00000   0.00000   0.00000   0.00000
    D2        3.14159   0.00000   0.00000   0.00000   0.00000   3.14159
    D3        3.14159  -0.00000   0.00000  -0.00000   0.00000   3.14159
    D4       -0.00000  -0.00000   0.00000  -0.00000   0.00000   0.00000
    D5        0.00000  -0.00000   0.00000  -0.00000   0.00000   0.00000
    D6        3.14159  -0.00000   0.00000   0.00000   0.00000   3.14159
    D7        0.00000  -0.00000   0.00000   0.00000  -0.00000   0.00000
    D8        3.14159   0.00000   0.00000   0.00000   0.00000   3.14159
    D9        3.14159   0.00000   0.00000  -0.00000   0.00000   3.14159
   D10        0.00000   0.00000   0.00000  -0.00000   0.00000   0.00000
   D11        0.00000  -0.00000   0.00000  -0.00000   0.00000   0.00000
   D12        3.14159  -0.00000   0.00000   0.00000   0.00000   3.14159
   D13        3.14159  -0.00000   0.00000  -0.00000   0.00000   3.14159
   D14       -0.00000   0.00000   0.00000   0.00000   0.00000   0.00000
   D15       -0.00000   0.00000   0.00000   0.00000   0.00000   0.00000
   D16        3.14159   0.00000   0.00000   0.00000   0.00000   3.14159
   D17        3.14159   0.00000   0.00000  -0.00000   0.00000   3.14159
   D18        0.00000   0.00000   0.00000   0.00000  -0.00000   0.00000
   D19        0.00000  -0.00000   0.00000  -0.00000  -0.00000   0.00000
   D20        3.14159  -0.00000   0.00000  -0.00000   0.00000   3.14159
         Item               Value     Threshold  Converged?
 Maximum Force            0.025916     0.000450     NO 
 RMS     Force            0.006172     0.000300     NO 
 Maximum Displacement     0.064854     0.001800     NO 
 RMS     Displacement     0.019618     0.001200     NO 
 Predicted change in Energy=-2.538067D-03
 GradGradGradGradGradGradGradGradGradGradGradGradGradGradGradGradGradGrad

                          Input orientation:                          
 ---------------------------------------------------------------------
 Center     Atomic      Atomic             Coordinates (Angstroms)
 Number     Number       Type             X           Y           Z
 ---------------------------------------------------------------------
      1          6           0       -3.102997    0.205617   -0.000000
      2          6           0       -1.908682    0.933333    0.000000
      3          6           0       -0.692761    0.260298    0.000000
      4          6           0       -0.637536   -1.128955    0.000000
      5          6           0       -1.823375   -1.871676    0.000000
      6          6           0       -2.992470   -1.160399    0.000000
      7         17           0       -4.632613    0.993286   -0.000000
      8          1           0       -1.941657    2.016258   -0.000000
      9          1           0        0.226142    0.832788    0.000000
     10          1           0        0.320697   -1.634117    0.000000
     11          1           0       -1.814618   -2.953913    0.000000
 ---------------------------------------------------------------------
                    Distance matrix (angstroms):
                    1          2          3          4          5
     1  C    0.000000
     2  C    1.398556   0.000000
     3  C    2.410856   1.389763   0.000000
     4  C    2.803494   2.422570   1.390350   0.000000
     5  C    2.439790   2.806306   2.413214   1.399231   0.000000
     6  C    1.370480   2.357607   2.703155   2.355144   1.368466
     7  Cl   1.720508   2.724591   4.007457   4.523776   4.012459
     8  H    2.151077   1.083427   2.154794   3.404863   3.889732
     9  H    3.387699   2.137190   1.082647   2.143449   3.393323
    10  H    3.886683   3.400285   2.148466   1.083236   2.157193
    11  H    3.412118   3.888385   3.404368   2.171634   1.082273
                    6          7          8          9         10
     6  C    0.000000
     7  Cl   2.707107   0.000000
     8  H    3.345947   2.878840   0.000000
     9  H    3.785797   4.861405   2.469808   0.000000
    10  H    3.346863   5.607007   4.294588   2.468717   0.000000
    11  H    2.145701   4.849895   4.971795   4.301605   2.510265
                   11
    11  H    0.000000
 Stoichiometry    C6H4Cl(2)
 Framework group  CS[SG(C6H4Cl)]
 Deg. of freedom    19
 Full point group                 CS      NOp   2
 Largest Abelian subgroup         CS      NOp   2
 Largest concise Abelian subgroup C1      NOp   1
                         Standard orientation:                         
 ---------------------------------------------------------------------
 Center     Atomic      Atomic             Coordinates (Angstroms)
 Number     Number       Type             X           Y           Z
 ---------------------------------------------------------------------
      1          6           0       -0.000000   -0.542025    0.000000
      2          6           0       -1.166678    0.229222   -0.000000
      3          6           0       -1.074883    1.615950   -0.000000
      4          6           0        0.158882    2.256963   -0.000000
      5          6           0        1.335533    1.499770   -0.000000
      6          6           0        1.189208    0.139150    0.000000
      7         17           0       -0.062081   -2.261413    0.000000
      8          1           0       -2.132685   -0.261333   -0.000000
      9          1           0       -1.983912    2.203990   -0.000000
     10          1           0        0.208384    3.339068   -0.000000
     11          1           0        2.311221    1.968116   -0.000000
 ---------------------------------------------------------------------
 Rotational constants (GHZ):           6.1415209           1.5662786           1.2479999
 Standard basis: 6-311++G(d,p) (5D, 7F)
 There are   149 symmetry adapted cartesian basis functions of A'  symmetry.
 There are    48 symmetry adapted cartesian basis functions of A"  symmetry.
 There are   142 symmetry adapted basis functions of A'  symmetry.
 There are    48 symmetry adapted basis functions of A"  symmetry.
   190 basis functions,   305 primitive gaussians,   197 cartesian basis functions
    29 alpha electrons       28 beta electrons
       nuclear repulsion energy       304.4609986545 Hartrees.
 NAtoms=   11 NActive=   11 NUniq=   11 SFac= 1.00D+00 NAtFMM=   60 NAOKFM=F Big=F
 Integral buffers will be    131072 words long.
 Raffenetti 2 integral format.
 Two-electron integral symmetry is turned on.
 One-electron integrals computed using PRISM.
 NBasis=   190 RedAO= T EigKep=  1.61D-06  NBF=   142    48
 NBsUse=   190 1.00D-06 EigRej= -1.00D+00 NBFU=   142    48
 Initial guess from the checkpoint file:  "frequency_chks/12-_2-ClBzNeutralRadical_Freq.chk"
 B after Tr=    -0.000000    0.000000   -0.000000
         Rot=    0.999982    0.000000    0.000000    0.005978 Ang=   0.69 deg.
 Initial guess orbital symmetries:
 Alpha Orbitals:
       Occupied  (A') (A') (A') (A') (A') (A') (A') (A') (A') (A")
                 (A') (A') (A') (A') (A') (A') (A') (A') (A') (A')
                 (A') (A") (A') (A') (A") (A') (A") (A') (A")
       Virtual   (A") (A') (A") (A') (A') (A') (A') (A") (A') (A')
                 (A") (A') (A") (A') (A') (A") (A') (A') (A') (A")
                 (A') (A") (A') (A') (A") (A') (A') (A') (A') (A")
                 (A') (A') (A') (A') (A') (A') (A') (A') (A') (A')
                 (A') (A') (A') (A') (A') (A') (A") (A') (A') (A")
                 (A') (A') (A') (A") (A") (A') (A') (A') (A") (A")
                 (A') (A") (A') (A') (A') (A') (A') (A') (A") (A')
                 (A') (A') (A') (A") (A') (A') (A') (A') (A') (A")
                 (A") (A') (A") (A") (A') (A') (A") (A') (A") (A')
                 (A') (A') (A') (A") (A') (A") (A') (A') (A") (A')
                 (A") (A') (A') (A') (A") (A") (A') (A") (A') (A')
                 (A') (A") (A') (A") (A') (A") (A") (A') (A') (A')
                 (A') (A') (A') (A') (A") (A') (A') (A') (A') (A')
                 (A') (A") (A") (A') (A") (A") (A') (A") (A') (A')
                 (A') (A') (A') (A') (A') (A') (A') (A') (A') (A')
                 (A') (A') (A') (A') (A') (A') (A') (A") (A') (A')
                 (A')
 Beta  Orbitals:
       Occupied  (A') (A') (A') (A') (A') (A') (A') (A') (A') (A")
                 (A') (A') (A') (A') (A') (A') (A') (A') (A') (A')
                 (A') (A") (A') (A') (A") (A') (A") (A")
       Virtual   (A') (A") (A') (A') (A") (A') (A') (A') (A") (A')
                 (A') (A") (A') (A") (A') (A') (A") (A') (A') (A')
                 (A") (A') (A") (A') (A') (A") (A') (A') (A') (A')
                 (A") (A') (A') (A') (A') (A') (A') (A') (A') (A')
                 (A') (A') (A') (A') (A') (A') (A') (A") (A') (A')
                 (A") (A') (A') (A') (A') (A") (A") (A') (A') (A")
                 (A") (A") (A') (A') (A') (A') (A') (A') (A') (A")
                 (A') (A') (A') (A') (A') (A") (A') (A') (A') (A')
                 (A") (A") (A') (A") (A") (A') (A') (A') (A") (A")
                 (A') (A') (A') (A') (A") (A") (A') (A') (A') (A")
                 (A') (A") (A') (A') (A') (A") (A") (A') (A') (A")
                 (A') (A') (A") (A') (A") (A') (A") (A") (A') (A')
                 (A') (A') (A') (A') (A') (A") (A') (A') (A') (A')
                 (A') (A') (A") (A") (A') (A") (A") (A') (A") (A')
                 (A') (A') (A') (A') (A') (A') (A') (A') (A') (A')
                 (A') (A') (A') (A') (A') (A') (A') (A') (A") (A')
                 (A') (A')
 Initial guess <Sx>= 0.0000 <Sy>= 0.0000 <Sz>= 0.5000 <S**2>= 0.7625 S= 0.5062
 ExpMin= 3.60D-02 ExpMax= 1.06D+05 ExpMxC= 3.62D+03 IAcc=3 IRadAn=         5 AccDes= 0.00D+00
 Harris functional with IExCor= 1009 and IRadAn=       5 diagonalized for initial guess.
 HarFok:  IExCor= 1009 AccDes= 0.00D+00 IRadAn=         5 IDoV= 1 UseB2=F ITyADJ=14
 ICtDFT=  3500011 ScaDFX=  1.000000  1.000000  1.000000  1.000000
 FoFCou: FMM=F IPFlag=           0 FMFlag=      100000 FMFlg1=           0
         NFxFlg=           0 DoJE=T BraDBF=F KetDBF=T FulRan=T
         wScrn=  0.000000 ICntrl=       500 IOpCl=  0 I1Cent=   200000004 NGrid=           0
         NMat0=    1 NMatS0=      1 NMatT0=    0 NMatD0=    1 NMtDS0=    0 NMtDT0=    0
 Petite list used in FoFCou.
 Keep R1 and R2 ints in memory in symmetry-blocked form, NReq=262273818.
 Requested convergence on RMS density matrix=1.00D-08 within 128 cycles.
 Requested convergence on MAX density matrix=1.00D-06.
 Requested convergence on             energy=1.00D-06.
 No special actions if energy rises.
 SCF Done:  E(UM062X) =  -691.111000838     A.U. after   16 cycles
            NFock= 16  Conv=0.54D-08     -V/T= 2.0027
 <Sx>= 0.0000 <Sy>= 0.0000 <Sz>= 0.5000 <S**2>= 0.7623 S= 0.5061
 <L.S>=  0.00000000000    
 Annihilation of the first spin contaminant:
 S**2 before annihilation     0.7623,   after     0.7501
 Calling FoFJK, ICntrl=      2127 FMM=F ISym2X=1 I1Cent= 0 IOpClX= 1 NMat=1 NMatS=1 NMatT=0.
 ***** Axes restored to original set *****
 -------------------------------------------------------------------
 Center     Atomic                   Forces (Hartrees/Bohr)
 Number     Number              X              Y              Z
 -------------------------------------------------------------------
      1        6           0.014438199   -0.003888861    0.000000000
      2        6          -0.004033234    0.001797742   -0.000000000
      3        6           0.001312473    0.000369540    0.000000000
      4        6          -0.000663593   -0.002045669    0.000000000
      5        6           0.003102596    0.002007930    0.000000000
      6        6          -0.006556406   -0.001193431   -0.000000000
      7       17          -0.007190897    0.003553523   -0.000000000
      8        1          -0.000535041    0.000271882   -0.000000000
      9        1           0.000126089    0.000366794   -0.000000000
     10        1          -0.000072132   -0.000471799    0.000000000
     11        1           0.000071947   -0.000767652    0.000000000
 -------------------------------------------------------------------
 Cartesian Forces:  Max     0.014438199 RMS     0.003363377

 GradGradGradGradGradGradGradGradGradGradGradGradGradGradGradGradGradGrad
 Berny optimization.
 Using GEDIIS/GDIIS optimizer.
 FormGI is forming the generalized inverse of G from B-inverse, IUseBI=4.
 Internal  Forces:  Max     0.008020063 RMS     0.001626638
 Search for a local minimum.
 Step number   2 out of a maximum of   57
 All quantities printed in internal units (Hartrees-Bohrs-Radians)
 Mixed Optimization -- RFO/linear search
 Update second derivatives using D2CorX and points    1    2
 DE= -2.93D-03 DEPred=-2.54D-03 R= 1.15D+00
 TightC=F SS=  1.41D+00  RLast= 1.21D-01 DXNew= 5.0454D-01 3.6260D-01
 Trust test= 1.15D+00 RLast= 1.21D-01 DXMaxT set to 3.63D-01
 ITU=  1  0
 Use linear search instead of GDIIS.
     Eigenvalues ---    0.01985   0.02010   0.02025   0.02039   0.02063
     Eigenvalues ---    0.02093   0.02158   0.02369   0.15891   0.16000
     Eigenvalues ---    0.16000   0.16023   0.20121   0.22001   0.22792
     Eigenvalues ---    0.24999   0.32925   0.33693   0.33825   0.34043
     Eigenvalues ---    0.36041   0.40644   0.43494   0.44568   0.45105
     Eigenvalues ---    0.49759   0.51802
 RFO step:  Lambda=-3.42281051D-04 EMin= 1.98452987D-02
 Quartic linear search produced a step of  0.20505.
 Iteration  1 RMS(Cart)=  0.00555039 RMS(Int)=  0.00004178
 Iteration  2 RMS(Cart)=  0.00004916 RMS(Int)=  0.00002104
 Iteration  3 RMS(Cart)=  0.00000000 RMS(Int)=  0.00002104
 ClnCor:  largest displacement from symmetrization is 2.73D-09 for atom     9.
 Variable       Old X    -DE/DX   Delta X   Delta X   Delta X     New X
                                 (Linear)    (Quad)   (Total)
    R1        2.64289  -0.00257  -0.00551  -0.00345  -0.00895   2.63394
    R2        2.58983   0.00025  -0.00214   0.00192  -0.00019   2.58964
    R3        3.25129   0.00802   0.01388   0.01611   0.02999   3.28128
    R4        2.62627   0.00147  -0.00441   0.00694   0.00251   2.62878
    R5        2.04738   0.00029  -0.00601   0.00512  -0.00089   2.04649
    R6        2.62738   0.00190  -0.00479   0.00847   0.00365   2.63103
    R7        2.04591   0.00030  -0.00693   0.00580  -0.00113   2.04478
    R8        2.64416  -0.00059  -0.00357   0.00092  -0.00267   2.64150
    R9        2.04702   0.00016  -0.00592   0.00459  -0.00133   2.04569
   R10        2.58603   0.00211  -0.00045   0.00521   0.00478   2.59080
   R11        2.04520   0.00077  -0.00552   0.00647   0.00095   2.04615
    A1        2.03730   0.00393   0.00494   0.01513   0.02012   2.05743
    A2        2.11882  -0.00176  -0.00201  -0.00687  -0.00890   2.10992
    A3        2.12706  -0.00218  -0.00294  -0.00826  -0.01122   2.11584
    A4        2.08881  -0.00114   0.00130  -0.00714  -0.00584   2.08297
    A5        2.08760   0.00004  -0.00190   0.00040  -0.00149   2.08611
    A6        2.10678   0.00111   0.00059   0.00674   0.00733   2.11411
    A7        2.11607  -0.00071  -0.00203  -0.00196  -0.00405   2.11202
    A8        2.07888   0.00011   0.00066  -0.00064   0.00005   2.07893
    A9        2.08824   0.00060   0.00137   0.00260   0.00400   2.09223
   A10        2.09062   0.00031  -0.00019   0.00238   0.00214   2.09275
   A11        2.09568   0.00031  -0.00062   0.00280   0.00220   2.09788
   A12        2.09689  -0.00062   0.00081  -0.00518  -0.00434   2.09255
   A13        2.03547   0.00117   0.00537   0.00281   0.00818   2.04365
   A14        2.12226  -0.00065  -0.00264  -0.00193  -0.00456   2.11769
   A15        2.12546  -0.00052  -0.00273  -0.00089  -0.00362   2.12184
   A16        2.19810  -0.00356  -0.00939  -0.01123  -0.02055   2.17755
    D1        0.00000   0.00000   0.00000  -0.00000   0.00000   0.00000
    D2        3.14159  -0.00000   0.00000   0.00000   0.00000   3.14159
    D3        3.14159   0.00000   0.00000  -0.00000   0.00000   3.14159
    D4        0.00000   0.00000   0.00000  -0.00000  -0.00000   0.00000
    D5       -0.00000   0.00000   0.00000  -0.00000   0.00000   0.00000
    D6        3.14159   0.00000   0.00000   0.00000   0.00000   3.14159
    D7        0.00000   0.00000   0.00000   0.00000  -0.00000   0.00000
    D8        3.14159  -0.00000   0.00000   0.00000   0.00000   3.14159
    D9        3.14159  -0.00000   0.00000  -0.00000   0.00000   3.14159
   D10        0.00000   0.00000   0.00000   0.00000   0.00000   0.00000
   D11       -0.00000  -0.00000   0.00000  -0.00000   0.00000   0.00000
   D12        3.14159  -0.00000   0.00000   0.00000   0.00000   3.14159
   D13        3.14159  -0.00000   0.00000  -0.00000   0.00000   3.14159
   D14        0.00000  -0.00000   0.00000  -0.00000  -0.00000   0.00000
   D15        0.00000  -0.00000   0.00000   0.00000  -0.00000   0.00000
   D16        3.14159   0.00000   0.00000   0.00000   0.00000   3.14159
   D17        3.14159  -0.00000   0.00000  -0.00000   0.00000   3.14159
   D18       -0.00000   0.00000   0.00000   0.00000   0.00000   0.00000
   D19       -0.00000   0.00000   0.00000   0.00000   0.00000   0.00000
   D20        3.14159   0.00000   0.00000  -0.00000   0.00000   3.14159
         Item               Value     Threshold  Converged?
 Maximum Force            0.008020     0.000450     NO 
 RMS     Force            0.001627     0.000300     NO 
 Maximum Displacement     0.019997     0.001800     NO 
 RMS     Displacement     0.005548     0.001200     NO 
 Predicted change in Energy=-2.584485D-04
 GradGradGradGradGradGradGradGradGradGradGradGradGradGradGradGradGradGrad

                          Input orientation:                          
 ---------------------------------------------------------------------
 Center     Atomic      Atomic             Coordinates (Angstroms)
 Number     Number       Type             X           Y           Z
 ---------------------------------------------------------------------
      1          6           0       -3.092415    0.201146   -0.000000
      2          6           0       -1.907202    0.934631    0.000000
      3          6           0       -0.689386    0.262277    0.000000
      4          6           0       -0.638202   -1.129063    0.000000
      5          6           0       -1.823454   -1.870060    0.000000
      6          6           0       -2.999923   -1.166108    0.000000
      7         17           0       -4.634573    0.999117   -0.000000
      8          1           0       -1.949277    2.016770   -0.000000
      9          1           0        0.228414    0.835402    0.000000
     10          1           0        0.316790   -1.638831    0.000000
     11          1           0       -1.810644   -2.952761    0.000000
 ---------------------------------------------------------------------
                    Distance matrix (angstroms):
                    1          2          3          4          5
     1  C    0.000000
     2  C    1.393819   0.000000
     3  C    2.403806   1.391091   0.000000
     4  C    2.791526   2.422642   1.392281   0.000000
     5  C    2.429024   2.805941   2.415154   1.397819   0.000000
     6  C    1.370380   2.367941   2.716406   2.362011   1.370995
     7  Cl   1.736378   2.728134   4.013407   4.527707   4.016786
     8  H    2.145519   1.082956   2.159993   3.408105   3.888866
     9  H    3.380855   2.137920   1.082049   2.147125   3.395539
    10  H    3.874041   3.401300   2.150953   1.082530   2.152698
    11  H    3.404419   3.888591   3.404951   2.168062   1.082777
                    6          7          8          9         10
     6  C    0.000000
     7  Cl   2.712984   0.000000
     8  H    3.351801   2.871661   0.000000
     9  H    3.798447   4.865742   2.477492   0.000000
    10  H    3.350231   5.610237   4.300985   2.475810   0.000000
    11  H    2.146279   4.857151   4.971464   4.302085   2.500477
                   11
    11  H    0.000000
 Stoichiometry    C6H4Cl(2)
 Framework group  CS[SG(C6H4Cl)]
 Deg. of freedom    19
 Full point group                 CS      NOp   2
 Largest Abelian subgroup         CS      NOp   2
 Largest concise Abelian subgroup C1      NOp   1
                         Standard orientation:                         
 ---------------------------------------------------------------------
 Center     Atomic      Atomic             Coordinates (Angstroms)
 Number     Number       Type             X           Y           Z
 ---------------------------------------------------------------------
      1          6           0       -0.000000   -0.530129   -0.000000
      2          6           0       -1.167118    0.231821   -0.000000
      3          6           0       -1.075088    1.619864    0.000000
      4          6           0        0.163046    2.256632    0.000000
      5          6           0        1.336982    1.497835    0.000000
      6          6           0        1.198795    0.133822    0.000000
      7         17           0       -0.068139   -2.265169   -0.000000
      8          1           0       -2.129136   -0.265488   -0.000000
      9          1           0       -1.983522    2.207721    0.000000
     10          1           0        0.219384    3.337695    0.000000
     11          1           0        2.311928    1.968883    0.000000
 ---------------------------------------------------------------------
 Rotational constants (GHZ):           6.1175363           1.5635323           1.2452649
 Standard basis: 6-311++G(d,p) (5D, 7F)
 There are   149 symmetry adapted cartesian basis functions of A'  symmetry.
 There are    48 symmetry adapted cartesian basis functions of A"  symmetry.
 There are   142 symmetry adapted basis functions of A'  symmetry.
 There are    48 symmetry adapted basis functions of A"  symmetry.
   190 basis functions,   305 primitive gaussians,   197 cartesian basis functions
    29 alpha electrons       28 beta electrons
       nuclear repulsion energy       304.0572210422 Hartrees.
 NAtoms=   11 NActive=   11 NUniq=   11 SFac= 1.00D+00 NAtFMM=   60 NAOKFM=F Big=F
 Integral buffers will be    131072 words long.
 Raffenetti 2 integral format.
 Two-electron integral symmetry is turned on.
 One-electron integrals computed using PRISM.
 NBasis=   190 RedAO= T EigKep=  1.64D-06  NBF=   142    48
 NBsUse=   190 1.00D-06 EigRej= -1.00D+00 NBFU=   142    48
 Initial guess from the checkpoint file:  "frequency_chks/12-_2-ClBzNeutralRadical_Freq.chk"
 B after Tr=     0.000000   -0.000000    0.000000
         Rot=    0.999999    0.000000    0.000000    0.001003 Ang=   0.11 deg.
 Initial guess orbital symmetries:
 Alpha Orbitals:
       Occupied  (A') (A') (A') (A') (A') (A') (A') (A') (A') (A')
                 (A") (A') (A') (A') (A') (A') (A') (A') (A') (A')
                 (A') (A") (A') (A') (A") (A') (A") (A') (A")
       Virtual   (A') (A") (A") (A') (A') (A') (A') (A") (A') (A')
                 (A") (A') (A") (A') (A') (A") (A') (A') (A') (A")
                 (A') (A") (A') (A') (A') (A") (A') (A') (A') (A")
                 (A') (A') (A') (A') (A') (A') (A') (A') (A') (A')
                 (A') (A') (A') (A') (A') (A') (A") (A') (A') (A")
                 (A') (A') (A') (A") (A") (A') (A') (A') (A") (A")
                 (A') (A") (A') (A') (A') (A') (A') (A') (A') (A")
                 (A') (A') (A') (A') (A") (A') (A') (A') (A') (A")
                 (A") (A') (A") (A") (A') (A') (A") (A') (A") (A')
                 (A') (A') (A') (A') (A") (A") (A') (A') (A") (A')
                 (A") (A') (A') (A') (A") (A") (A') (A") (A') (A')
                 (A') (A") (A') (A") (A') (A") (A") (A') (A') (A')
                 (A') (A') (A') (A') (A') (A") (A') (A') (A') (A')
                 (A") (A') (A") (A') (A") (A") (A') (A") (A') (A')
                 (A') (A') (A') (A') (A') (A') (A') (A') (A') (A')
                 (A') (A') (A') (A') (A') (A') (A') (A") (A') (A')
                 (A')
 Beta  Orbitals:
       Occupied  (A') (A') (A') (A') (A') (A') (A') (A') (A') (A")
                 (A') (A') (A') (A') (A') (A') (A') (A') (A') (A')
                 (A') (A") (A') (A') (A") (A') (A") (A")
       Virtual   (A') (A') (A") (A') (A") (A') (A') (A') (A") (A')
                 (A') (A") (A") (A') (A') (A') (A") (A') (A') (A')
                 (A") (A') (A") (A') (A') (A") (A') (A') (A') (A')
                 (A") (A') (A') (A') (A') (A') (A') (A') (A') (A')
                 (A') (A') (A') (A') (A') (A') (A') (A") (A') (A')
                 (A') (A") (A') (A') (A') (A") (A") (A') (A') (A")
                 (A") (A") (A') (A') (A') (A') (A') (A') (A') (A')
                 (A") (A') (A') (A') (A') (A") (A') (A') (A') (A')
                 (A") (A") (A') (A") (A") (A') (A') (A') (A") (A")
                 (A') (A') (A') (A') (A") (A') (A") (A') (A') (A")
                 (A') (A") (A') (A') (A') (A") (A") (A') (A") (A')
                 (A') (A') (A") (A') (A") (A') (A") (A") (A') (A')
                 (A') (A') (A') (A') (A') (A') (A") (A') (A') (A')
                 (A') (A") (A') (A") (A') (A") (A") (A') (A") (A')
                 (A') (A') (A') (A') (A') (A') (A') (A') (A') (A')
                 (A') (A') (A') (A') (A') (A') (A') (A') (A") (A')
                 (A') (A')
 Initial guess <Sx>= 0.0000 <Sy>= 0.0000 <Sz>= 0.5000 <S**2>= 0.7623 S= 0.5061
 Keep R1 and R2 ints in memory in symmetry-blocked form, NReq=262273818.
 Requested convergence on RMS density matrix=1.00D-08 within 128 cycles.
 Requested convergence on MAX density matrix=1.00D-06.
 Requested convergence on             energy=1.00D-06.
 No special actions if energy rises.
 SCF Done:  E(UM062X) =  -691.111304420     A.U. after   15 cycles
            NFock= 15  Conv=0.81D-08     -V/T= 2.0027
 <Sx>= 0.0000 <Sy>= 0.0000 <Sz>= 0.5000 <S**2>= 0.7624 S= 0.5062
 <L.S>=  0.00000000000    
 Annihilation of the first spin contaminant:
 S**2 before annihilation     0.7624,   after     0.7501
 Calling FoFJK, ICntrl=      2127 FMM=F ISym2X=1 I1Cent= 0 IOpClX= 1 NMat=1 NMatS=1 NMatT=0.
 ***** Axes restored to original set *****
 -------------------------------------------------------------------
 Center     Atomic                   Forces (Hartrees/Bohr)
 Number     Number              X              Y              Z
 -------------------------------------------------------------------
      1        6           0.002649243   -0.001476314    0.000000000
      2        6          -0.000799161    0.000889886   -0.000000000
      3        6          -0.000013885   -0.000666231    0.000000000
      4        6          -0.000587356    0.000466525   -0.000000000
      5        6           0.000389954   -0.000021623    0.000000000
      6        6          -0.001220449    0.000404737   -0.000000000
      7       17          -0.001548595    0.000662285   -0.000000000
      8        1          -0.000056635    0.000399809   -0.000000000
      9        1           0.000612106    0.000282878    0.000000000
     10        1           0.000464773   -0.000394283    0.000000000
     11        1           0.000110006   -0.000547669    0.000000000
 -------------------------------------------------------------------
 Cartesian Forces:  Max     0.002649243 RMS     0.000729863

 GradGradGradGradGradGradGradGradGradGradGradGradGradGradGradGradGradGrad
 Berny optimization.
 Using GEDIIS/GDIIS optimizer.
 FormGI is forming the generalized inverse of G from B-inverse, IUseBI=4.
 Internal  Forces:  Max     0.001679866 RMS     0.000392102
 Search for a local minimum.
 Step number   3 out of a maximum of   57
 All quantities printed in internal units (Hartrees-Bohrs-Radians)
 Mixed Optimization -- En-DIIS/RFO-DIIS
 Update second derivatives using D2CorX and points    1    2    3
 DE= -3.04D-04 DEPred=-2.58D-04 R= 1.17D+00
 TightC=F SS=  1.41D+00  RLast= 4.81D-02 DXNew= 6.0982D-01 1.4443D-01
 Trust test= 1.17D+00 RLast= 4.81D-02 DXMaxT set to 3.63D-01
 ITU=  1  1  0
 Use linear search instead of GDIIS.
     Eigenvalues ---    0.01985   0.02010   0.02025   0.02039   0.02063
     Eigenvalues ---    0.02093   0.02158   0.02366   0.15525   0.16000
     Eigenvalues ---    0.16014   0.16036   0.17571   0.22006   0.22912
     Eigenvalues ---    0.25025   0.31894   0.33699   0.33839   0.34006
     Eigenvalues ---    0.36400   0.40740   0.43515   0.44903   0.45315
     Eigenvalues ---    0.49747   0.51728
 RFO step:  Lambda=-1.08456335D-05 EMin= 1.98480364D-02
 Quartic linear search produced a step of  0.22927.
 Iteration  1 RMS(Cart)=  0.00168441 RMS(Int)=  0.00000416
 Iteration  2 RMS(Cart)=  0.00000293 RMS(Int)=  0.00000350
 Iteration  3 RMS(Cart)=  0.00000000 RMS(Int)=  0.00000350
 ClnCor:  largest displacement from symmetrization is 1.86D-10 for atom     9.
 Variable       Old X    -DE/DX   Delta X   Delta X   Delta X     New X
                                 (Linear)    (Quad)   (Total)
    R1        2.63394   0.00004  -0.00205   0.00128  -0.00077   2.63317
    R2        2.58964  -0.00019  -0.00004  -0.00067  -0.00071   2.58893
    R3        3.28128   0.00168   0.00688   0.00111   0.00798   3.28926
    R4        2.62878   0.00073   0.00058   0.00107   0.00164   2.63042
    R5        2.04649   0.00040  -0.00020   0.00100   0.00080   2.04729
    R6        2.63103   0.00023   0.00084  -0.00053   0.00030   2.63133
    R7        2.04478   0.00067  -0.00026   0.00192   0.00166   2.04644
    R8        2.64150   0.00015  -0.00061   0.00053  -0.00008   2.64141
    R9        2.04569   0.00060  -0.00031   0.00178   0.00148   2.04716
   R10        2.59080   0.00055   0.00110   0.00031   0.00141   2.59221
   R11        2.04615   0.00055   0.00022   0.00121   0.00143   2.04758
    A1        2.05743   0.00087   0.00461   0.00099   0.00562   2.06304
    A2        2.10992  -0.00024  -0.00204   0.00029  -0.00175   2.10817
    A3        2.11584  -0.00063  -0.00257  -0.00129  -0.00386   2.11198
    A4        2.08297  -0.00062  -0.00134  -0.00198  -0.00332   2.07965
    A5        2.08611   0.00027  -0.00034   0.00138   0.00103   2.08714
    A6        2.11411   0.00035   0.00168   0.00060   0.00228   2.11639
    A7        2.11202  -0.00004  -0.00093   0.00051  -0.00042   2.11160
    A8        2.07893   0.00011   0.00001   0.00074   0.00075   2.07969
    A9        2.09223  -0.00007   0.00092  -0.00125  -0.00033   2.09190
   A10        2.09275   0.00031   0.00049   0.00135   0.00184   2.09459
   A11        2.09788  -0.00002   0.00050  -0.00034   0.00017   2.09805
   A12        2.09255  -0.00029  -0.00099  -0.00101  -0.00200   2.09055
   A13        2.04365  -0.00014   0.00188  -0.00186   0.00002   2.04367
   A14        2.11769  -0.00003  -0.00105   0.00024  -0.00081   2.11688
   A15        2.12184   0.00018  -0.00083   0.00162   0.00079   2.12263
   A16        2.17755  -0.00038  -0.00471   0.00098  -0.00373   2.17383
    D1       -0.00000   0.00000   0.00000  -0.00000   0.00000   0.00000
    D2        3.14159   0.00000   0.00000  -0.00000   0.00000   3.14159
    D3        3.14159   0.00000   0.00000  -0.00000   0.00000   3.14159
    D4        0.00000   0.00000   0.00000  -0.00000   0.00000   0.00000
    D5        0.00000  -0.00000   0.00000  -0.00000   0.00000   0.00000
    D6        3.14159  -0.00000   0.00000  -0.00000   0.00000   3.14159
    D7        0.00000   0.00000   0.00000   0.00000  -0.00000   0.00000
    D8        3.14159  -0.00000   0.00000  -0.00000   0.00000   3.14159
    D9        3.14159   0.00000   0.00000   0.00000   0.00000   3.14159
   D10       -0.00000   0.00000   0.00000   0.00000   0.00000   0.00000
   D11       -0.00000  -0.00000   0.00000  -0.00000   0.00000   0.00000
   D12        3.14159  -0.00000   0.00000  -0.00000   0.00000   3.14159
   D13        3.14159  -0.00000   0.00000  -0.00000   0.00000   3.14159
   D14       -0.00000  -0.00000   0.00000   0.00000   0.00000   0.00000
   D15        0.00000   0.00000   0.00000   0.00000   0.00000   0.00000
   D16        3.14159  -0.00000   0.00000  -0.00000   0.00000   3.14159
   D17        3.14159   0.00000   0.00000   0.00000   0.00000   3.14159
   D18        0.00000  -0.00000   0.00000  -0.00000  -0.00000   0.00000
   D19        0.00000   0.00000   0.00000   0.00000  -0.00000   0.00000
   D20        3.14159   0.00000   0.00000   0.00000   0.00000   3.14159
         Item               Value     Threshold  Converged?
 Maximum Force            0.001680     0.000450     NO 
 RMS     Force            0.000392     0.000300     NO 
 Maximum Displacement     0.004940     0.001800     NO 
 RMS     Displacement     0.001684     0.001200     NO 
 Predicted change in Energy=-1.584365D-05
 GradGradGradGradGradGradGradGradGradGradGradGradGradGradGradGradGradGrad

                          Input orientation:                          
 ---------------------------------------------------------------------
 Center     Atomic      Atomic             Coordinates (Angstroms)
 Number     Number       Type             X           Y           Z
 ---------------------------------------------------------------------
      1          6           0       -3.089800    0.200215   -0.000000
      2          6           0       -1.906829    0.936541    0.000000
      3          6           0       -0.688749    0.262872    0.000000
      4          6           0       -0.639173   -1.128687    0.000000
      5          6           0       -1.823888   -1.870460    0.000000
      6          6           0       -3.001482   -1.166940    0.000000
      7         17           0       -4.636375    0.998843   -0.000000
      8          1           0       -1.950595    2.019035   -0.000000
      9          1           0        0.230652    0.835093    0.000000
     10          1           0        0.315830   -1.640092    0.000000
     11          1           0       -1.809461   -2.953899    0.000000
 ---------------------------------------------------------------------
                    Distance matrix (angstroms):
                    1          2          3          4          5
     1  C    0.000000
     2  C    1.393412   0.000000
     3  C    2.401869   1.391959   0.000000
     4  C    2.787751   2.423245   1.392441   0.000000
     5  C    2.426979   2.808227   2.416536   1.397776   0.000000
     6  C    1.370005   2.371265   2.719025   2.362618   1.371739
     7  Cl   1.740603   2.730257   4.015645   4.528135   4.017833
     8  H    2.146135   1.083378   2.162491   3.409982   3.891559
     9  H    3.380603   2.139887   1.082929   2.147796   3.397228
    10  H    3.871053   3.402830   2.151848   1.083313   2.152084
    11  H    3.404072   3.891659   3.406407   2.168173   1.083535
                    6          7          8          9         10
     6  C    0.000000
     7  Cl   2.713576   0.000000
     8  H    3.354818   2.873013   0.000000
     9  H    3.801950   4.869781   2.481845   0.000000
    10  H    3.350885   5.611445   4.304172   2.476650   0.000000
    11  H    2.148054   4.859590   4.974936   4.303315   2.498590
                   11
    11  H    0.000000
 Stoichiometry    C6H4Cl(2)
 Framework group  CS[SG(C6H4Cl)]
 Deg. of freedom    19
 Full point group                 CS      NOp   2
 Largest Abelian subgroup         CS      NOp   2
 Largest concise Abelian subgroup C1      NOp   1
                         Standard orientation:                         
 ---------------------------------------------------------------------
 Center     Atomic      Atomic             Coordinates (Angstroms)
 Number     Number       Type             X           Y           Z
 ---------------------------------------------------------------------
      1          6           0       -0.000000   -0.526967   -0.000000
      2          6           0       -1.169413    0.230708   -0.000000
      3          6           0       -1.077539    1.619632    0.000000
      4          6           0        0.160909    2.256136    0.000000
      5          6           0        1.335994    1.499199    0.000000
      6          6           0        1.199888    0.134230    0.000000
      7         17           0       -0.065314   -2.266344   -0.000000
      8          1           0       -2.130592   -0.269137   -0.000000
[...]
      7       17          -0.000112751    0.000019576   -0.000000000
      8        1           0.000014962    0.000016972    0.000000000
      9        1           0.000070124   -0.000013265    0.000000000
     10        1           0.000060482   -0.000035615    0.000000000
     11        1           0.000049013   -0.000008877    0.000000000
 -------------------------------------------------------------------
 Cartesian Forces:  Max     0.000340532 RMS     0.000117002
 FormGI is forming the generalized inverse of G from B-inverse, IUseBI=4.

 GradGradGradGradGradGradGradGradGradGradGradGradGradGradGradGradGradGrad
 Berny optimization.
 Internal  Forces:  Max     0.000195967 RMS     0.000066286
 Search for a local minimum.
 Step number   1 out of a maximum of    2
 All quantities printed in internal units (Hartrees-Bohrs-Radians)
 Second derivative matrix not updated -- analytic derivatives used.
 ITU=  0
     Eigenvalues ---    0.01774   0.01788   0.01965   0.02442   0.02674
     Eigenvalues ---    0.02805   0.03322   0.03915   0.10562   0.10939
     Eigenvalues ---    0.11716   0.12023   0.15561   0.17336   0.18433
     Eigenvalues ---    0.19320   0.26425   0.27339   0.36242   0.36467
     Eigenvalues ---    0.36597   0.36711   0.42493   0.42683   0.47610
     Eigenvalues ---    0.49281   0.52729
 Angle between quadratic step and forces=  17.72 degrees.
 Linear search not attempted -- first point.
 Iteration  1 RMS(Cart)=  0.00051683 RMS(Int)=  0.00000019
 Iteration  2 RMS(Cart)=  0.00000026 RMS(Int)=  0.00000002
 ClnCor:  largest displacement from symmetrization is 8.06D-15 for atom    10.
 Variable       Old X    -DE/DX   Delta X   Delta X   Delta X     New X
                                 (Linear)    (Quad)   (Total)
    R1        2.63317   0.00003   0.00000   0.00001   0.00001   2.63318
    R2        2.58893  -0.00011   0.00000  -0.00037  -0.00037   2.58856
    R3        3.28926   0.00011   0.00000   0.00064   0.00064   3.28990
    R4        2.63042   0.00010   0.00000   0.00027   0.00027   2.63070
    R5        2.04729   0.00002   0.00000  -0.00001  -0.00001   2.04728
    R6        2.63133   0.00000   0.00000  -0.00009  -0.00009   2.63124
    R7        2.04644   0.00005   0.00000   0.00016   0.00016   2.04660
    R8        2.64141   0.00011   0.00000   0.00039   0.00039   2.64181
    R9        2.04716   0.00007   0.00000   0.00022   0.00022   2.04739
   R10        2.59221   0.00002   0.00000   0.00000   0.00000   2.59221
   R11        2.04758   0.00001   0.00000  -0.00005  -0.00005   2.04754
    A1        2.06304   0.00007   0.00000   0.00050   0.00050   2.06354
    A2        2.10817   0.00002   0.00000   0.00014   0.00014   2.10831
    A3        2.11198  -0.00009   0.00000  -0.00064  -0.00064   2.11133
    A4        2.07965  -0.00015   0.00000  -0.00097  -0.00097   2.07867
    A5        2.08714   0.00009   0.00000   0.00068   0.00068   2.08782
    A6        2.11639   0.00006   0.00000   0.00030   0.00030   2.11669
    A7        2.11160   0.00006   0.00000   0.00039   0.00039   2.11198
    A8        2.07969   0.00002   0.00000   0.00033   0.00033   2.08001
    A9        2.09190  -0.00008   0.00000  -0.00071  -0.00071   2.09119
   A10        2.09459   0.00007   0.00000   0.00055   0.00055   2.09514
   A11        2.09805  -0.00003   0.00000  -0.00032  -0.00032   2.09773
   A12        2.09055  -0.00004   0.00000  -0.00022  -0.00022   2.09032
   A13        2.04367  -0.00020   0.00000  -0.00118  -0.00118   2.04248
   A14        2.11688   0.00005   0.00000   0.00009   0.00009   2.11698
   A15        2.12263   0.00015   0.00000   0.00109   0.00109   2.12372
   A16        2.17383   0.00015   0.00000   0.00073   0.00073   2.17456
    D1       -0.00000  -0.00000   0.00000  -0.00000   0.00000   0.00000
    D2        3.14159  -0.00000   0.00000   0.00000   0.00000   3.14159
    D3        3.14159  -0.00000   0.00000  -0.00000   0.00000   3.14159
    D4        0.00000  -0.00000   0.00000   0.00000   0.00000   0.00000
    D5        0.00000  -0.00000   0.00000   0.00000   0.00000   0.00000
    D6        3.14159  -0.00000   0.00000   0.00000   0.00000   3.14159
    D7       -0.00000   0.00000   0.00000   0.00000   0.00000   0.00000
    D8        3.14159   0.00000   0.00000   0.00000   0.00000   3.14159
    D9        3.14159   0.00000   0.00000  -0.00000   0.00000   3.14159
   D10        0.00000   0.00000   0.00000   0.00000   0.00000   0.00000
   D11        0.00000   0.00000   0.00000  -0.00000   0.00000   0.00000
   D12        3.14159  -0.00000   0.00000   0.00000   0.00000   3.14159
   D13        3.14159   0.00000   0.00000  -0.00000   0.00000   3.14159
   D14       -0.00000  -0.00000   0.00000   0.00000   0.00000   0.00000
   D15       -0.00000  -0.00000   0.00000  -0.00000   0.00000   0.00000
   D16        3.14159   0.00000   0.00000   0.00000   0.00000   3.14159
   D17        3.14159  -0.00000   0.00000  -0.00000   0.00000   3.14159
   D18        0.00000  -0.00000   0.00000  -0.00000   0.00000   0.00000
   D19        0.00000  -0.00000   0.00000  -0.00000  -0.00000   0.00000
   D20        3.14159   0.00000   0.00000  -0.00000   0.00000   3.14159
         Item               Value     Threshold  Converged?
 Maximum Force            0.000196     0.000450     YES
 RMS     Force            0.000066     0.000300     YES
 Maximum Displacement     0.001380     0.001800     YES
 RMS     Displacement     0.000517     0.001200     YES
 Predicted change in Energy=-5.876763D-07
 Optimization completed.
    -- Stationary point found.
                           ----------------------------
                           !   Optimized Parameters   !
                           ! (Angstroms and Degrees)  !
 --------------------------                            --------------------------
 ! Name  Definition              Value          Derivative Info.                !
 --------------------------------------------------------------------------------
 ! R1    R(1,2)                  1.3934         -DE/DX =    0.0                 !
 ! R2    R(1,6)                  1.37           -DE/DX =   -0.0001              !
 ! R3    R(1,7)                  1.7406         -DE/DX =    0.0001              !
 ! R4    R(2,3)                  1.392          -DE/DX =    0.0001              !
 ! R5    R(2,8)                  1.0834         -DE/DX =    0.0                 !
 ! R6    R(3,4)                  1.3924         -DE/DX =    0.0                 !
 ! R7    R(3,9)                  1.0829         -DE/DX =    0.0001              !
 ! R8    R(4,5)                  1.3978         -DE/DX =    0.0001              !
 ! R9    R(4,10)                 1.0833         -DE/DX =    0.0001              !
 ! R10   R(5,6)                  1.3717         -DE/DX =    0.0                 !
 ! R11   R(5,11)                 1.0835         -DE/DX =    0.0                 !
 ! A1    A(2,1,6)              118.2035         -DE/DX =    0.0001              !
 ! A2    A(2,1,7)              120.7891         -DE/DX =    0.0                 !
 ! A3    A(6,1,7)              121.0074         -DE/DX =   -0.0001              !
 ! A4    A(1,2,3)              119.1551         -DE/DX =   -0.0002              !
 ! A5    A(1,2,8)              119.5845         -DE/DX =    0.0001              !
 ! A6    A(3,2,8)              121.2604         -DE/DX =    0.0001              !
 ! A7    A(2,3,4)              120.9855         -DE/DX =    0.0001              !
 ! A8    A(2,3,9)              119.1573         -DE/DX =    0.0                 !
 ! A9    A(4,3,9)              119.8572         -DE/DX =   -0.0001              !
 ! A10   A(3,4,5)              120.0111         -DE/DX =    0.0001              !
 ! A11   A(3,4,10)             120.2094         -DE/DX =    0.0                 !
 ! A12   A(5,4,10)             119.7794         -DE/DX =    0.0                 !
 ! A13   A(4,5,6)              117.0935         -DE/DX =   -0.0002              !
 ! A14   A(4,5,11)             121.2886         -DE/DX =    0.0                 !
 ! A15   A(6,5,11)             121.618          -DE/DX =    0.0001              !
 ! A16   A(1,6,5)              124.5512         -DE/DX =    0.0002              !
 ! D1    D(6,1,2,3)              0.0            -DE/DX =    0.0                 !
 ! D2    D(6,1,2,8)            180.0            -DE/DX =    0.0                 !
 ! D3    D(7,1,2,3)            180.0            -DE/DX =    0.0                 !
 ! D4    D(7,1,2,8)              0.0            -DE/DX =    0.0                 !
 ! D5    D(2,1,6,5)              0.0            -DE/DX =    0.0                 !
 ! D6    D(7,1,6,5)            180.0            -DE/DX =    0.0                 !
 ! D7    D(1,2,3,4)              0.0            -DE/DX =    0.0                 !
 ! D8    D(1,2,3,9)            180.0            -DE/DX =    0.0                 !
 ! D9    D(8,2,3,4)            180.0            -DE/DX =    0.0                 !
 ! D10   D(8,2,3,9)              0.0            -DE/DX =    0.0                 !
 ! D11   D(2,3,4,5)              0.0            -DE/DX =    0.0                 !
 ! D12   D(2,3,4,10)           180.0            -DE/DX =    0.0                 !
 ! D13   D(9,3,4,5)            180.0            -DE/DX =    0.0                 !
 ! D14   D(9,3,4,10)             0.0            -DE/DX =    0.0                 !
 ! D15   D(3,4,5,6)              0.0            -DE/DX =    0.0                 !
 ! D16   D(3,4,5,11)           180.0            -DE/DX =    0.0                 !
 ! D17   D(10,4,5,6)           180.0            -DE/DX =    0.0                 !
 ! D18   D(10,4,5,11)            0.0            -DE/DX =    0.0                 !
 ! D19   D(4,5,6,1)              0.0            -DE/DX =    0.0                 !
 ! D20   D(11,5,6,1)           180.0            -DE/DX =    0.0                 !
 --------------------------------------------------------------------------------
 GradGradGradGradGradGradGradGradGradGradGradGradGradGradGradGradGradGrad


 ----------------------------------------------------------------------

 Electric dipole moment (input orientation):
 (Debye = 10**-18 statcoulomb cm , SI units = C m)
                  (au)            (Debye)         (10**-30 SI)
   Tot        0.913697D+00      0.232239D+01      0.774665D+01
   x          0.899151D+00      0.228541D+01      0.762332D+01
   y         -0.162389D+00     -0.412751D+00     -0.137679D+01
   z          0.000000D+00      0.000000D+00      0.000000D+00

 Dipole polarizability, Alpha (input orientation).
 (esu units = cm**3 , SI units = C**2 m**2 J**-1)
 Alpha(0;0):
               (au)            (10**-24 esu)      (10**-40 SI)
   iso        0.757273D+02      0.112216D+02      0.124857D+02
   aniso      0.512626D+02      0.759633D+01      0.845206D+01
   xx         0.968169D+02      0.143468D+02      0.159629D+02
   yx        -0.114106D+02     -0.169088D+01     -0.188136D+01
   yy         0.854845D+02      0.126675D+02      0.140945D+02
   zx         0.000000D+00      0.000000D+00      0.000000D+00
   zy         0.000000D+00      0.000000D+00      0.000000D+00
   zz         0.448805D+02      0.665060D+01      0.739979D+01

 ----------------------------------------------------------------------

 Dipole orientation:
     6         -0.11825919         -0.65480497         -5.81316395
     6          0.19571505          1.08368056         -3.86056085
     6          0.04576946          0.25342698         -1.36911248
     6         -0.41119307         -2.27678933         -0.80955759
     6         -0.72707173         -4.02581964         -2.76357438
     6         -0.56484360         -3.12755726         -5.18975660
    17          0.05337838          0.29555781         -8.95746167
     1          0.55087595          3.05021792         -4.30551068
     1          0.28977305          1.60448276          0.14845958
     1         -0.52321203         -2.89704190          1.13816489
     1         -1.08429609         -6.00378250         -2.37286522

 Electric dipole moment (dipole orientation):
 (Debye = 10**-18 statcoulomb cm , SI units = C m)
                  (au)            (Debye)         (10**-30 SI)
   Tot        0.913697D+00      0.232239D+01      0.774665D+01
   x          0.000000D+00      0.000000D+00      0.000000D+00
   y          0.000000D+00      0.000000D+00      0.000000D+00
   z          0.913697D+00      0.232239D+01      0.774665D+01

 Dipole polarizability, Alpha (dipole orientation).
 (esu units = cm**3 , SI units = C**2 m**2 J**-1)
 Alpha(0;0):
               (au)            (10**-24 esu)      (10**-40 SI)
   iso        0.757273D+02      0.112216D+02      0.124857D+02
   aniso      0.512626D+02      0.759633D+01      0.845206D+01
   xx         0.460483D+02      0.682365D+01      0.759233D+01
   yx         0.646606D+01      0.958172D+00      0.106611D+01
   yy         0.806833D+02      0.119560D+02      0.133029D+02
   zx        -0.154760D+01     -0.229331D+00     -0.255166D+00
   zy        -0.856914D+01     -0.126982D+01     -0.141286D+01
   zz         0.100450D+03      0.148852D+02      0.165620D+02

 ----------------------------------------------------------------------
 1\1\GINC-SH02-02N47\Freq\UM062X\6-311++G(d,p)\C6H4Cl1(2)\JLAPIER\10-De
 c-2025\0\\#N Geom=AllCheck Guess=TCheck SCRF=Check GenChk UM062X/6-311
 ++G(d,p) Freq\\Neutral Radical (removed 1) _2\\0,2\C,-3.089800461,0.20
 02146752,0.\C,-1.9068292561,0.9365411349,0.\C,-0.6887487649,0.26287151
 13,0.\C,-0.6391732435,-1.1286869033,0.\C,-1.8238884013,-1.8704604681,0
 .\C,-3.0014817339,-1.1669403525,0.\Cl,-4.6363750592,0.9988432082,0.\H,
 -1.9505949913,2.0190349986,0.\H,0.2306520116,0.8350932313,0.\H,0.31583
 04748,-1.6400918781,0.\H,-1.8094605752,-2.9538991576,0.\\Version=ES64L
 -G16RevB.01\State=2-A'\HF=-691.1113219\S2=0.762473\S2-1=0.\S2A=0.75007
 \RMSD=5.158e-09\RMSF=1.170e-04\ZeroPoint=0.0786617\Thermal=0.0841083\D
 ipole=0.8991513,-0.1623887,0.\DipoleDeriv=0.9017521,-0.4599267,0.,-0.5
 215587,0.2952974,0.,0.,0.,0.0351375,-0.1700835,0.0636916,0.,0.0606953,
 -0.0069239,0.,0.,0.,-0.1366974,0.0202423,0.0754056,0.,0.0424044,-0.031
 2054,0.,0.,0.,-0.124384,0.0198246,0.0066788,0.,-0.0048253,0.024617,0.,
 0.,0.,-0.1633589,-0.0476753,-0.0367088,0.,-0.0186855,0.0300672,0.,0.,0
 .,-0.0757276,-0.1748974,0.0232756,0.,0.1106418,-0.1271406,0.,0.,0.,-0.
 0743518,-0.652673,0.2944163,0.,0.3168652,-0.2437499,0.,0.,0.,-0.054792
 6,0.0783737,0.0073993,0.,0.0129358,-0.0066276,0.,0.,0.,0.1419744,-0.02
 65554,-0.0475083,0.,-0.0497244,0.035281,0.,0.,0.,0.1504286,-0.0342718,
 0.0591485,0.,0.0448719,0.043278,0.,0.,0.,0.1434218,0.0859639,0.0141281
 ,0.,0.0063797,-0.0128931,0.,0.,0.,0.1583501\Polar=96.8168523,-11.41062
 32,85.4844708,0.,0.,44.8804664\Quadrupole=0.932996,2.6528026,-3.585798
 6,-0.2180508,0.,0.\PG=CS [SG(C6H4Cl1)]\NImag=0\\0.52985478,0.02302915,
 0.62638966,0.,0.,0.11961096,-0.24941967,-0.05521551,0.,0.65433353,-0.1
 4344438,-0.18155781,0.,-0.01339732,0.75379155,0.,0.,-0.06327291,0.,0.,
 0.12901479,-0.06046074,-0.04031841,0.,-0.28950795,0.12889775,0.,0.7284
 2339,0.02817547,0.07477001,0.,0.05240333,-0.18092648,0.,0.03747424,0.6
 9313181,0.,0.,0.00560119,0.,0.,-0.06074593,0.,0.,0.13474796,-0.0141646
 9,-0.03561335,0.,0.03411951,0.03168284,0.,-0.13023525,0.04568738,0.,0.
 72014746,-0.03761349,-0.06795519,0.,0.08839636,-0.02327342,0.,-0.02820
 757,-0.33864972,0.,-0.04297171,0.67810685,0.,0.,-0.00384434,0.,0.,0.00
 492201,0.,0.,-0.06208862,0.,0.,0.13021624,0.03676144,0.08318043,0.,-0.
 07969078,-0.00078589,0.,0.03950661,-0.08500371,0.,-0.26326289,-0.04817
 681,0.,0.62226981,0.03471118,-0.02371188,0.,-0.00296851,0.00230139,0.,
 -0.02638207,-0.02754070,0.,-0.13508504,-0.18032541,0.,-0.02937395,0.74
 311204,0.,0.,0.00465929,0.,0.,-0.00246819,0.,0.,0.00653046,0.,0.,-0.06
 115705,0.,0.,0.12644605,-0.09081077,-0.00133731,0.,0.04365052,-0.02092
 344,0.,-0.02509770,0.03560437,0.,-0.06984485,-0.03157749,0.,-0.2861513
 6,0.13846333,0.,0.44797286,0.02602331,-0.35208681,0.,-0.08732196,-0.03
 755441,0.,0.03563951,-0.06455165,0.,0.03700888,0.07353725,0.,0.0985720
 8,-0.17348174,0.,-0.15011068,0.58657862,0.,0.,-0.05607697,0.,0.,0.0136
 5686,0.,0.,-0.00521288,0.,0.,0.01311991,0.,0.,-0.05146013,0.,0.,0.0735
 4885,-0.14885416,0.04814116,0.,-0.03883687,0.02309471,0.,-0.00008647,-
 0.00687729,0.,-0.00190218,0.00196204,0.,0.00125155,-0.00069097,0.,-0.0
 1400191,0.01987333,0.,0.20300555,0.06172087,-0.06226373,0.,-0.00574138
 ,0.00659124,0.,-0.00052043,-0.00107236,0.,0.00143702,0.00106274,0.,-0.
 00297518,-0.00370209,0.,0.03227276,-0.01880425,0.,-0.08695627,0.077211
 51,0.,0.,-0.02314455,0.,0.,0.00556408,0.,0.,0.00487047,0.,0.,-0.000169
 76,0.,0.,0.00411121,0.,0.,0.00156587,0.,0.,0.01107325,0.00196894,-0.02
 706769,0.,-0.05642963,0.01139092,0.,0.00449936,0.02718550,0.,-0.004322
 43,0.00212090,0.,-0.00095966,0.00077150,0.,-0.00364763,-0.00399190,0.,
 0.00126002,-0.00022152,0.,0.05663613,0.00378473,-0.01226368,0.,0.00972
 625,-0.34597943,0.,-0.00218524,-0.00828827,0.,0.00252850,0.00084869,0.
 ,-0.00001033,0.00106370,0.,-0.00303864,-0.00121778,0.,0.00036434,0.000
 87959,0.,-0.01113596,0.36487103,0.,0.,0.00368508,0.,0.,-0.03630236,0.,
 0.,0.00351998,0.,0.,0.00690939,0.,0.,-0.00116034,0.,0.,0.00593183,0.,0
 .,-0.00274793,0.,0.,0.02463850,-0.00235383,0.00281331,0.,-0.01818122,-
 0.01618312,0.,-0.26640330,-0.12940491,0.,0.00494690,0.00293515,0.,0.00
 190316,0.00076605,0.,0.00007487,0.00113005,0.,-0.00137104,-0.00010423,
 0.,0.00078838,0.00019297,0.,0.27994399,0.00312601,-0.00003110,0.,0.014
 52885,0.01132946,0.,-0.12953486,-0.13894885,0.,-0.02760230,-0.01031626
 ,0.,0.00051187,-0.00558129,0.,0.00133238,-0.00102358,0.,0.00097348,0.0
 0004062,0.,-0.00045282,0.00058579,0.,0.13800193,0.14371339,0.,0.,0.007
 24352,0.,0.,0.00324525,0.,0.,-0.03692630,0.,0.,0.00338440,0.,0.,0.0066
 0576,0.,0.,-0.00117023,0.,0.,-0.00016633,0.,0.,-0.00412865,0.,0.,0.025
 98081,0.00091489,-0.00123602,0.,0.00159797,-0.00009595,0.,0.00342384,-
 0.00241625,0.,-0.28122833,0.12043624,0.,-0.01772838,0.01355946,0.,-0.0
 0429363,-0.00249205,0.,-0.00002201,0.00012295,0.,0.00013639,-0.0002046
 3,0.,0.00052655,0.00040270,0.,0.29576911,-0.00047771,-0.00137426,0.,-0
 .00061339,-0.00532049,0.,0.02831809,-0.00850999,0.,0.11959076,-0.12201
 725,0.,-0.01677532,0.00995874,0.,-0.00391747,0.00022756,0.,0.00007683,
 0.00020355,0.,0.00141232,-0.00041016,0.,-0.00036834,0.00082150,0.,-0.1
 2804969,0.12569695,0.,0.,-0.00073292,0.,0.,0.00677771,0.,0.,0.00305866
 ,0.,0.,-0.03707186,0.,0.,0.00391427,0.,0.,0.00689501,0.,0.,-0.00061643
 ,0.,0.,0.00022110,0.,0.,-0.00397050,0.,0.,0.02557267,-0.00343618,0.003
 62426,0.,-0.00163540,-0.00023610,0.,-0.00406181,-0.00282814,0.,0.00574
 675,-0.02730364,0.,-0.05389950,0.00622901,0.,0.00214961,0.02566942,0.,
 -0.00044249,0.00096541,0.,0.00007013,-0.00002199,0.,0.00012555,-0.0012
 8725,0.,0.00090361,0.00080393,0.,0.05447971,0.00096486,0.00008480,0.,0
 .00020327,0.00059840,0.,-0.00318101,0.00058620,0.,0.00333702,-0.011018
 30,0.,0.00083681,-0.34209277,0.,0.00323219,-0.01162323,0.,0.00003865,-
 0.00014682,0.,-0.00001125,-0.00008949,0.,0.00022115,-0.00058968,0.,-0.
 00002678,0.00072385,0.,-0.00561491,0.36356703,0.,0.,0.00627165,0.,0.,-
 0.00039131,0.,0.,0.00664501,0.,0.,0.00577967,0.,0.,-0.03602133,0.,0.,-
 0.00079813,0.,0.,-0.00033988,0.,0.,-0.00056660,0.,0.,-0.00009774,0.,0.
 ,-0.00404770,0.,0.,0.02356636\\-0.00015025,0.00024806,0.,0.00008644,-0
 .00022395,0.,0.00004632,0.00011231,0.,0.00002286,-0.00021068,0.,0.0001
 4480,0.00034053,0.,-0.00006833,-0.00028748,0.,0.00011275,-0.00001958,0
 .,-0.00001496,-0.00001697,0.,-0.00007012,0.00001326,0.,-0.00006048,0.0
 0003562,0.,-0.00004901,0.00000888,0.\\\@


 My opinions may have changed, but not the fact that I am right.
                       -- Ashleigh Brilliant
 Job cpu time:       0 days  0 hours 35 minutes 10.6 seconds.
 Elapsed time:       0 days  0 hours  8 minutes 49.2 seconds.
 File lengths (MBytes):  RWF=    124 Int=      0 D2E=      0 Chk=     34 Scr=      1
 Normal termination of Gaussian 16 at Wed Dec 10 11:06:46 2025.
