 Entering Gaussian System, Link 0=g16
 Initial command:
 /share/software/user/restricted/gaussian/g16.B01/l1.exe "/home/users/jlapier/Chloroaromatics/Gau-10671.inp" -scrdir="/home/users/jlapier/Chloroaromatics/"
 Entering Link 1 = /share/software/user/restricted/gaussian/g16.B01/l1.exe PID=     10672.
  
 Copyright (c) 1988-2017, Gaussian, Inc.  All Rights Reserved.
  
 This is part of the Gaussian(R) 16 program.  It is based on
 the Gaussian(R) 09 system (copyright 2009, Gaussian, Inc.),
 the Gaussian(R) 03 system (copyright 2003, Gaussian, Inc.),
 the Gaussian(R) 98 system (copyright 1998, Gaussian, Inc.),
 the Gaussian(R) 94 system (copyright 1995, Gaussian, Inc.),
 the Gaussian 92(TM) system (copyright 1992, Gaussian, Inc.),
 the Gaussian 90(TM) system (copyright 1990, Gaussian, Inc.),
 the Gaussian 88(TM) system (copyright 1988, Gaussian, Inc.),
 the Gaussian 86(TM) system (copyright 1986, Carnegie Mellon
 University), and the Gaussian 82(TM) system (copyright 1983,
 Carnegie Mellon University). Gaussian is a federally registered
 trademark of Gaussian, Inc.
  
 This software contains proprietary and confidential information,
 including trade secrets, belonging to Gaussian, Inc.
  
 This software is provided under written license and may be
 used, copied, transmitted, or stored only in accord with that
 written license.
  
 The following legend is applicable only to US Government
 contracts under FAR:
  
                    RESTRICTED RIGHTS LEGEND
  
 Use, reproduction and disclosure by the US Government is
 subject to restrictions as set forth in subparagraphs (a)
 and (c) of the Commercial Computer Software - Restricted
 Rights clause in FAR 52.227-19.
  
 Gaussian, Inc.
 340 Quinnipiac St., Bldg. 40, Wallingford CT 06492
  
  
 ---------------------------------------------------------------
 Warning -- This program may not be used in any manner that
 competes with the business of Gaussian, Inc. or will provide
 assistance to any competitor of Gaussian, Inc.  The licensee
 of this program is prohibited from giving any competitor of
 Gaussian, Inc. access to this program.  By using this program,
 the user acknowledges that Gaussian, Inc. is engaged in the
 business of creating and licensing software in the field of
 computational chemistry and represents and warrants to the
 licensee that it is not a competitor of Gaussian, Inc. and that
 it will not use this program in any manner prohibited above.
 ---------------------------------------------------------------
  

 Cite this work as:
 Gaussian 16, Revision B.01,
 M. J. Frisch, G. W. Trucks, H. B. Schlegel, G. E. Scuseria, 
 M. A. Robb, J. R. Cheeseman, G. Scalmani, V. Barone, 
 G. A. Petersson, H. Nakatsuji, X. Li, M. Caricato, A. V. Marenich, 
 J. Bloino, B. G. Janesko, R. Gomperts, B. Mennucci, H. P. Hratchian, 
 J. V. Ortiz, A. F. Izmaylov, J. L. Sonnenberg, D. Williams-Young, 
 F. Ding, F. Lipparini, F. Egidi, J. Goings, B. Peng, A. Petrone, 
 T. Henderson, D. Ranasinghe, V. G. Zakrzewski, J. Gao, N. Rega, 
 G. Zheng, W. Liang, M. Hada, M. Ehara, K. Toyota, R. Fukuda, 
 J. Hasegawa, M. Ishida, T. Nakajima, Y. Honda, O. Kitao, H. Nakai, 
 T. Vreven, K. Throssell, J. A. Montgomery, Jr., J. E. Peralta, 
 F. Ogliaro, M. J. Bearpark, J. J. Heyd, E. N. Brothers, K. N. Kudin, 
 V. N. Staroverov, T. A. Keith, R. Kobayashi, J. Normand, 
 K. Raghavachari, A. P. Rendell, J. C. Burant, S. S. Iyengar, 
 J. Tomasi, M. Cossi, J. M. Millam, M. Klene, C. Adamo, R. Cammi, 
 J. W. Ochterski, R. L. Martin, K. Morokuma, O. Farkas, 
 J. B. Foresman, and D. J. Fox, Gaussian, Inc., Wallingford CT, 2016.
 
 ******************************************
 Gaussian 16:  ES64L-G16RevB.01 20-Dec-2017
                10-Dec-2025 
 ******************************************
 %mem=8GB
 %nprocshare=4
 Will use up to    4 processors via shared memory.
 %oldchk=geometry_chks/123-12_-ClBzNeutralRadical.chk
 %chk=frequency_chks/123-12_-ClBzNeutralRadical_Freq.chk
 Copying data from "geometry_chks/123-12_-ClBzNeutralRadical.chk" to current chk file "frequency_chks/123-12_-ClBzNeutralRadical_Freq.chk"
 IOpt=  2 FromEx=T IUOpen= 4 IOptOp= 5 NList=   0 IFRang= 0 IUIn= 4 IUOut= 2.
 -------------------------------------------------------
 # opt freq 6-311++g(d,p) guess=read geom=allcheck m062x
 -------------------------------------------------------
 1/18=20,19=15,26=3,29=7,38=1/1,3;
 2/9=110,12=2,40=1/2;
 3/5=4,6=6,7=1111,11=2,14=-4,25=1,30=1,71=1,74=-55,116=-2/1,2,3;
 4/5=1/1;
 5/5=2,38=6/2;
 6/7=2,8=2,9=2,10=2,28=1/1;
 7//1,2,3,16;
 1/18=20,19=15,26=3/3(2);
 2/9=110/2;
 99//99;
 2/9=110/2;
 3/5=4,6=6,7=1111,11=2,14=-2,25=1,30=1,71=1,74=-55/1,2,3;
 4/5=5,16=3,69=1/1;
 5/5=2,38=5/2;
 7//1,2,3,16;
 1/18=20,19=15,26=3/3(-5);
 2/9=110/2;
 6/7=2,8=2,9=2,10=2,19=2,28=1/1;
 99/9=1/99;
 Structure from the checkpoint file:  "frequency_chks/123-12_-ClBzNeutralRadical_Freq.chk"
 -------------------------------
 Neutral Radical (removed 3) 12_
 -------------------------------
 Charge =  0 Multiplicity = 2
 Redundant internal coordinates found in file.  (old form).
 C,0,-3.1385772622,0.1560130065,0.
 C,0,-1.9068715895,0.7701922663,0.
 C,0,-0.6586201864,0.2090872262,0.
 C,0,-0.6423228283,-1.200112146,0.
 C,0,-1.8455520183,-1.9170319486,0.
 C,0,-3.0923560446,-1.2626568323,0.
 Cl,0,-4.5148831912,-2.1747548406,0.
 Cl,0,-4.5743465419,1.028877231,0.
 H,0,0.2606935663,0.8074432293,0.
 H,0,0.3163557743,-1.7372853617,0.
 H,0,-1.8182396781,-3.01800183,0.
 Recover connectivity data from disk.

 GradGradGradGradGradGradGradGradGradGradGradGradGradGradGradGradGradGrad
 Berny optimization.
 Initialization pass.
                           ----------------------------
                           !    Initial Parameters    !
                           ! (Angstroms and Degrees)  !
 --------------------------                            --------------------------
 ! Name  Definition              Value          Derivative Info.                !
 --------------------------------------------------------------------------------
 ! R1    R(1,2)                  1.3763         estimate D2E/DX2                !
 ! R2    R(1,6)                  1.4194         estimate D2E/DX2                !
 ! R3    R(1,8)                  1.6803         estimate D2E/DX2                !
 ! R4    R(2,3)                  1.3686         estimate D2E/DX2                !
 ! R5    R(3,4)                  1.4093         estimate D2E/DX2                !
 ! R6    R(3,9)                  1.0969         estimate D2E/DX2                !
 ! R7    R(4,5)                  1.4006         estimate D2E/DX2                !
 ! R8    R(4,10)                 1.0989         estimate D2E/DX2                !
 ! R9    R(5,6)                  1.4081         estimate D2E/DX2                !
 ! R10   R(5,11)                 1.1013         estimate D2E/DX2                !
 ! R11   R(6,7)                  1.6898         estimate D2E/DX2                !
 ! A1    A(2,1,6)              114.6367         estimate D2E/DX2                !
 ! A2    A(2,1,8)              122.2001         estimate D2E/DX2                !
 ! A3    A(6,1,8)              123.1632         estimate D2E/DX2                !
 ! A4    A(1,2,3)              129.2927         estimate D2E/DX2                !
 ! A5    A(2,3,4)              114.8671         estimate D2E/DX2                !
 ! A6    A(2,3,9)              122.7365         estimate D2E/DX2                !
 ! A7    A(4,3,9)              122.3964         estimate D2E/DX2                !
 ! A8    A(3,4,5)              120.1252         estimate D2E/DX2                !
 ! A9    A(3,4,10)             119.9257         estimate D2E/DX2                !
 ! A10   A(5,4,10)             119.9492         estimate D2E/DX2                !
 ! A11   A(4,5,6)              121.5199         estimate D2E/DX2                !
 ! A12   A(4,5,11)             119.3667         estimate D2E/DX2                !
 ! A13   A(6,5,11)             119.1135         estimate D2E/DX2                !
 ! A14   A(1,6,5)              119.5585         estimate D2E/DX2                !
 ! A15   A(1,6,7)              120.8012         estimate D2E/DX2                !
 ! A16   A(5,6,7)              119.6404         estimate D2E/DX2                !
 ! D1    D(6,1,2,3)              0.0            estimate D2E/DX2                !
 ! D2    D(8,1,2,3)            180.0            estimate D2E/DX2                !
 ! D3    D(2,1,6,5)              0.0            estimate D2E/DX2                !
 ! D4    D(2,1,6,7)            180.0            estimate D2E/DX2                !
 ! D5    D(8,1,6,5)            180.0            estimate D2E/DX2                !
 ! D6    D(8,1,6,7)              0.0            estimate D2E/DX2                !
 ! D7    D(1,2,3,4)              0.0            estimate D2E/DX2                !
 ! D8    D(1,2,3,9)            180.0            estimate D2E/DX2                !
 ! D9    D(2,3,4,5)              0.0            estimate D2E/DX2                !
 ! D10   D(2,3,4,10)           180.0            estimate D2E/DX2                !
 ! D11   D(9,3,4,5)            180.0            estimate D2E/DX2                !
 ! D12   D(9,3,4,10)             0.0            estimate D2E/DX2                !
 ! D13   D(3,4,5,6)              0.0            estimate D2E/DX2                !
 ! D14   D(3,4,5,11)           180.0            estimate D2E/DX2                !
 ! D15   D(10,4,5,6)           180.0            estimate D2E/DX2                !
 ! D16   D(10,4,5,11)            0.0            estimate D2E/DX2                !
 ! D17   D(4,5,6,1)              0.0            estimate D2E/DX2                !
 ! D18   D(4,5,6,7)            180.0            estimate D2E/DX2                !
 ! D19   D(11,5,6,1)           180.0            estimate D2E/DX2                !
 ! D20   D(11,5,6,7)             0.0            estimate D2E/DX2                !
 --------------------------------------------------------------------------------
 Trust Radius=3.00D-01 FncErr=1.00D-07 GrdErr=1.00D-06 EigMax=2.50D+02 EigMin=1.00D-04
 Number of steps in this run=     57 maximum allowed number of steps=    100.
 GradGradGradGradGradGradGradGradGradGradGradGradGradGradGradGradGradGrad

                          Input orientation:                          
 ---------------------------------------------------------------------
 Center     Atomic      Atomic             Coordinates (Angstroms)
 Number     Number       Type             X           Y           Z
 ---------------------------------------------------------------------
      1          6           0       -3.138577    0.156013   -0.000000
      2          6           0       -1.906872    0.770192   -0.000000
      3          6           0       -0.658620    0.209087   -0.000000
      4          6           0       -0.642323   -1.200112   -0.000000
      5          6           0       -1.845552   -1.917032   -0.000000
      6          6           0       -3.092356   -1.262657   -0.000000
      7         17           0       -4.514883   -2.174755    0.000000
      8         17           0       -4.574347    1.028877    0.000000
      9          1           0        0.260694    0.807443   -0.000000
     10          1           0        0.316356   -1.737285   -0.000000
     11          1           0       -1.818240   -3.018002   -0.000000
 ---------------------------------------------------------------------
                    Distance matrix (angstroms):
                    1          2          3          4          5
     1  C    0.000000
     2  C    1.376341   0.000000
     3  C    2.480525   1.368565   0.000000
     4  C    2.840838   2.341193   1.409294   0.000000
     5  C    2.443242   2.687924   2.434993   1.400619   0.000000
     6  C    1.419423   2.353263   2.844134   2.450831   1.408093
     7  Cl   2.706787   3.933756   4.533593   3.993326   2.681744
     8  Cl   1.680275   2.679989   4.000621   4.519868   4.015557
     9  H    3.461127   2.167885   1.096890   2.201299   3.443695
    10  H    3.939688   3.351147   2.176912   1.098918   2.169367
    11  H    3.437683   3.789231   3.429114   2.165064   1.101309
                    6          7          8          9         10
     6  C    0.000000
     7  Cl   1.689824   0.000000
     8  Cl   2.728997   3.204184   0.000000
     9  H    3.940591   5.630243   4.840108   0.000000
    10  H    3.441597   4.851005   5.618774   2.545337   0.000000
    11  H    2.169011   2.825412   4.896259   4.353848   2.489324
                   11
    11  H    0.000000
 Stoichiometry    C6H3Cl2(2)
 Framework group  CS[SG(C6H3Cl2)]
 Deg. of freedom    19
 Full point group                 CS      NOp   2
 Largest Abelian subgroup         CS      NOp   2
 Largest concise Abelian subgroup C1      NOp   1
                         Standard orientation:                         
 ---------------------------------------------------------------------
 Center     Atomic      Atomic             Coordinates (Angstroms)
 Number     Number       Type             X           Y           Z
 ---------------------------------------------------------------------
      1          6           0       -0.111685   -0.739244   -0.000000
      2          6           0        1.090345   -1.409647   -0.000000
      3          6           0        2.363176   -0.906784   -0.000000
      4          6           0        2.444531    0.500159    0.000000
      5          6           0        1.275692    1.271878    0.000000
      6          6           0       -0.000000    0.675778    0.000000
      7         17           0       -1.378890    1.652594    0.000000
      8         17           0       -1.586230   -1.544875   -0.000000
      9          1           0        3.253877   -1.546955   -0.000000
     10          1           0        3.426993    0.992489    0.000000
     11          1           0        1.353817    2.370412    0.000000
 ---------------------------------------------------------------------
 Rotational constants (GHZ):           1.9730089           1.4410149           0.8327813
 Standard basis: 6-311++G(d,p) (5D, 7F)
 There are   166 symmetry adapted cartesian basis functions of A'  symmetry.
 There are    55 symmetry adapted cartesian basis functions of A"  symmetry.
 There are   158 symmetry adapted basis functions of A'  symmetry.
 There are    55 symmetry adapted basis functions of A"  symmetry.
   213 basis functions,   349 primitive gaussians,   221 cartesian basis functions
    37 alpha electrons       36 beta electrons
       nuclear repulsion energy       457.3390042292 Hartrees.
 NAtoms=   11 NActive=   11 NUniq=   11 SFac= 1.00D+00 NAtFMM=   60 NAOKFM=F Big=F
 Integral buffers will be    131072 words long.
 Raffenetti 2 integral format.
 Two-electron integral symmetry is turned on.
 One-electron integrals computed using PRISM.
 NBasis=   213 RedAO= T EigKep=  1.25D-06  NBF=   158    55
 NBsUse=   213 1.00D-06 EigRej= -1.00D+00 NBFU=   158    55
 Initial guess from the checkpoint file:  "frequency_chks/123-12_-ClBzNeutralRadical_Freq.chk"
 B after Tr=    -0.000000   -0.000000   -0.000000
         Rot=    1.000000   -0.000000    0.000000    0.000000 Ang=   0.00 deg.
 Initial guess orbital symmetries:
 Alpha Orbitals:
       Occupied  (A') (A') (A') (A') (A') (A') (A') (A') (A') (A')
                 (A') (A") (A') (A') (A") (A") (A') (A') (A') (A")
                 (A") (A") (A") (A') (A') (A") (A') (A') (A') (A')
                 (A') (A') (A') (A') (A') (A') (A')
       Virtual   (A') (A') (A') (A') (A') (A') (A') (A') (A') (A')
                 (A') (A') (A') (A') (A') (A') (A') (A') (A') (A')
                 (A') (A') (A') (A') (A') (A') (A') (A') (A') (A')
                 (A') (A') (A') (A') (A') (A') (A') (A') (A') (A')
                 (A') (A') (A') (A') (A') (A') (A') (A') (A') (A')
                 (A') (A') (A') (A') (A') (A') (A') (A') (A') (A')
                 (A') (A') (A') (A') (A') (A') (A') (A') (A') (A')
                 (A') (A') (A') (A') (A') (A') (A') (A') (A') (A')
                 (A') (A') (A') (A') (A') (A') (A') (A') (A') (A')
                 (A') (A') (A') (A') (A') (A') (A') (A') (A') (A')
                 (A') (A') (A') (A') (A') (A') (A') (A') (A') (A')
                 (A') (A') (A') (A') (A') (A') (A') (A') (A') (A')
                 (A') (A') (A') (A') (A') (A') (A') (A') (A') (A")
                 (A") (A") (A") (A") (A") (A") (A") (A") (A") (A")
                 (A") (A") (A") (A") (A") (A") (A") (A") (A") (A")
                 (A") (A") (A") (A") (A") (A") (A") (A") (A") (A")
                 (A") (A") (A") (A") (A") (A") (A") (A") (A") (A")
                 (A") (A") (A") (A") (A") (A")
 Beta  Orbitals:
       Occupied  (A') (A') (A') (A') (A') (A') (A') (A') (A') (A')
                 (A') (A") (A') (A') (A") (A") (A') (A') (A") (A")
                 (A') (A") (A") (A') (A') (A") (A') (A') (A') (A')
                 (A') (A') (A') (A') (A') (A')
       Virtual   (A') (A') (A') (A') (A') (A') (A') (A') (A') (A')
                 (A') (A') (A') (A') (A') (A') (A') (A') (A') (A')
                 (A') (A') (A') (A') (A') (A') (A') (A') (A') (A')
                 (A') (A') (A') (A') (A') (A') (A') (A') (A') (A')
                 (A') (A') (A') (A') (A') (A') (A') (A') (A') (A')
                 (A') (A') (A') (A') (A') (A') (A') (A') (A') (A')
                 (A') (A') (A') (A') (A') (A') (A') (A') (A') (A')
                 (A') (A') (A') (A') (A') (A') (A') (A') (A') (A')
                 (A') (A') (A') (A') (A') (A') (A') (A') (A') (A')
                 (A') (A') (A') (A') (A') (A') (A') (A') (A') (A')
                 (A') (A') (A') (A') (A') (A') (A') (A') (A') (A')
                 (A') (A') (A') (A') (A') (A') (A') (A') (A') (A')
                 (A') (A') (A') (A') (A') (A') (A') (A') (A') (A')
                 (A") (A") (A") (A") (A") (A") (A") (A") (A") (A")
                 (A") (A") (A") (A") (A") (A") (A") (A") (A") (A")
                 (A") (A") (A") (A") (A") (A") (A") (A") (A") (A")
                 (A") (A") (A") (A") (A") (A") (A") (A") (A") (A")
                 (A") (A") (A") (A") (A") (A") (A")
 Initial guess <Sx>= 0.0000 <Sy>= 0.0000 <Sz>= 0.5000 <S**2>= 0.7500 S= 0.5000
 Keep R1 and R2 ints in memory in symmetry-blocked form, NReq=411615841.
 Requested convergence on RMS density matrix=1.00D-08 within 128 cycles.
 Requested convergence on MAX density matrix=1.00D-06.
 Requested convergence on             energy=1.00D-06.
 No special actions if energy rises.
 EnCoef did     5 forward-backward iterations
 SCF Done:  E(UM062X) =  -1150.70481921     A.U. after   30 cycles
            NFock= 30  Conv=0.72D-08     -V/T= 2.0025
 <Sx>= 0.0000 <Sy>= 0.0000 <Sz>= 0.5000 <S**2>= 0.7628 S= 0.5064
 <L.S>=  0.00000000000    
 Annihilation of the first spin contaminant:
 S**2 before annihilation     0.7628,   after     0.7501

 **********************************************************************

            Population analysis using the SCF Density.

 **********************************************************************

 Orbital symmetries:
 Alpha Orbitals:
       Occupied  (A') (A') (A') (A') (A') (A') (A') (A') (A') (A')
                 (A') (A') (A") (A') (A") (A') (A') (A') (A') (A')
                 (A') (A') (A') (A') (A') (A') (A') (A") (A') (A')
                 (A") (A") (A') (A') (A") (A') (A")
       Virtual   (A") (A") (A') (A') (A') (A') (A') (A") (A') (A')
                 (A') (A") (A") (A') (A') (A") (A') (A') (A") (A')
                 (A') (A') (A") (A') (A") (A') (A') (A') (A") (A')
                 (A') (A') (A") (A') (A') (A') (A') (A') (A') (A')
                 (A') (A') (A') (A') (A') (A') (A') (A") (A') (A')
                 (A') (A') (A") (A') (A') (A") (A') (A') (A") (A")
                 (A') (A') (A") (A") (A') (A') (A") (A') (A') (A')
                 (A') (A') (A") (A') (A') (A') (A') (A') (A') (A")
                 (A") (A') (A') (A") (A') (A') (A') (A') (A") (A")
                 (A') (A") (A') (A') (A") (A') (A') (A") (A') (A")
                 (A') (A') (A') (A') (A") (A") (A') (A') (A') (A")
                 (A') (A') (A") (A') (A") (A') (A") (A') (A") (A')
                 (A') (A') (A") (A') (A") (A') (A") (A") (A') (A')
                 (A') (A') (A') (A') (A') (A") (A') (A') (A') (A')
                 (A') (A') (A") (A") (A") (A") (A') (A") (A') (A')
                 (A') (A') (A') (A') (A') (A') (A') (A') (A') (A')
                 (A') (A') (A') (A') (A') (A') (A') (A') (A") (A")
                 (A') (A') (A') (A') (A') (A')
 Beta  Orbitals:
       Occupied  (A') (A') (A') (A') (A') (A') (A') (A') (A') (A')
                 (A') (A') (A") (A') (A") (A') (A') (A') (A') (A')
                 (A') (A') (A') (A') (A') (A') (A') (A") (A') (A')
                 (A") (A") (A') (A') (A") (A")
       Virtual   (A') (A") (A') (A") (A') (A') (A') (A') (A") (A')
                 (A') (A") (A') (A") (A') (A') (A") (A') (A') (A")
                 (A') (A') (A") (A') (A') (A") (A') (A') (A') (A")
                 (A') (A') (A') (A") (A') (A') (A') (A') (A') (A')
                 (A') (A') (A') (A') (A') (A') (A') (A') (A') (A")
                 (A') (A') (A') (A") (A') (A') (A") (A') (A') (A')
                 (A") (A") (A') (A") (A") (A') (A') (A") (A') (A')
                 (A') (A') (A') (A") (A') (A') (A') (A') (A') (A')
                 (A") (A") (A') (A') (A") (A') (A') (A') (A') (A")
                 (A") (A') (A") (A') (A') (A') (A") (A') (A") (A')
                 (A") (A') (A') (A') (A') (A") (A") (A') (A') (A')
                 (A") (A') (A') (A") (A') (A") (A') (A") (A') (A")
                 (A') (A') (A') (A") (A') (A") (A') (A") (A") (A')
                 (A') (A') (A') (A') (A') (A') (A") (A') (A') (A')
                 (A') (A') (A') (A") (A") (A") (A") (A') (A") (A')
                 (A') (A') (A') (A') (A') (A') (A') (A') (A') (A')
                 (A') (A') (A') (A') (A') (A') (A') (A') (A') (A")
                 (A") (A') (A') (A') (A') (A') (A')
 The electronic state is 2-A'.
 Alpha  occ. eigenvalues -- -102.69342-102.69186 -10.63409 -10.63154 -10.59562
 Alpha  occ. eigenvalues --  -10.57961 -10.57727 -10.57656  -9.83678  -9.83532
 Alpha  occ. eigenvalues --   -7.56239  -7.56063  -7.55496  -7.55487  -7.55372
 Alpha  occ. eigenvalues --   -7.55346  -1.04417  -0.98362  -0.96033  -0.85463
 Alpha  occ. eigenvalues --   -0.84152  -0.70467  -0.70300  -0.60697  -0.57491
 Alpha  occ. eigenvalues --   -0.54756  -0.52815  -0.51010  -0.48443  -0.46337
 Alpha  occ. eigenvalues --   -0.43274  -0.41862  -0.40496  -0.38806  -0.32957
 Alpha  occ. eigenvalues --   -0.32708  -0.30853
 Alpha virt. eigenvalues --   -0.01162  -0.00583  -0.00528   0.01163   0.02007
 Alpha virt. eigenvalues --    0.03336   0.04419   0.05693   0.05889   0.07466
 Alpha virt. eigenvalues --    0.08048   0.08375   0.08654   0.09040   0.10210
 Alpha virt. eigenvalues --    0.11152   0.11702   0.12240   0.12628   0.12950
 Alpha virt. eigenvalues --    0.13300   0.13951   0.14029   0.14602   0.15294
 Alpha virt. eigenvalues --    0.15738   0.17332   0.18072   0.18427   0.19434
 Alpha virt. eigenvalues --    0.20242   0.20549   0.20928   0.22583   0.23289
 Alpha virt. eigenvalues --    0.24480   0.25355   0.26138   0.26327   0.27563
 Alpha virt. eigenvalues --    0.28366   0.29199   0.30385   0.33608   0.34169
 Alpha virt. eigenvalues --    0.34566   0.36670   0.46251   0.46509   0.46697
 Alpha virt. eigenvalues --    0.48258   0.49273   0.50109   0.50562   0.52964
 Alpha virt. eigenvalues --    0.54578   0.56663   0.57242   0.59805   0.60164
 Alpha virt. eigenvalues --    0.60848   0.62716   0.63162   0.64261   0.64508
 Alpha virt. eigenvalues --    0.67447   0.69766   0.69965   0.73644   0.76326
 Alpha virt. eigenvalues --    0.78460   0.79670   0.80884   0.85372   0.87158
 Alpha virt. eigenvalues --    0.87473   0.89749   0.90477   0.90950   0.91264
 Alpha virt. eigenvalues --    0.91516   0.93819   0.95045   0.95834   0.98465
 Alpha virt. eigenvalues --    0.99167   1.00292   1.02040   1.03134   1.04126
 Alpha virt. eigenvalues --    1.09529   1.13356   1.14294   1.21392   1.23202
 Alpha virt. eigenvalues --    1.24380   1.31217   1.32502   1.34121   1.35930
 Alpha virt. eigenvalues --    1.40017   1.50168   1.53080   1.56491   1.58782
 Alpha virt. eigenvalues --    1.62551   1.62614   1.66545   1.72296   1.73728
 Alpha virt. eigenvalues --    1.79686   1.81771   1.87291   1.90021   1.90768
 Alpha virt. eigenvalues --    1.91516   1.95390   1.97671   1.98491   2.00976
 Alpha virt. eigenvalues --    2.02299   2.16572   2.20774   2.26701   2.27687
 Alpha virt. eigenvalues --    2.29753   2.32400   2.33478   2.41098   2.43732
 Alpha virt. eigenvalues --    2.45855   2.48536   2.49862   2.54937   2.64301
 Alpha virt. eigenvalues --    2.68075   2.68704   2.71269   2.73493   2.73727
 Alpha virt. eigenvalues --    2.76397   2.76985   2.80738   2.82509   2.91231
 Alpha virt. eigenvalues --    2.93359   3.00226   3.10330   3.14856   3.24554
 Alpha virt. eigenvalues --    3.26574   3.35469   3.42152   3.51334   3.64933
 Alpha virt. eigenvalues --    3.77496   3.99053   4.06704   4.11855   4.76947
 Alpha virt. eigenvalues --    9.95824  10.00985  23.46752  23.89666  23.95283
 Alpha virt. eigenvalues --   24.04434  24.12039  24.21482  25.88903  25.97290
 Alpha virt. eigenvalues --   26.18056  26.28627  26.58685  26.90155 216.05696
 Alpha virt. eigenvalues --  216.11643
  Beta  occ. eigenvalues -- -102.69309-102.69164 -10.63341 -10.63189 -10.58592
  Beta  occ. eigenvalues --  -10.57878 -10.57749 -10.57683  -9.83664  -9.83524
  Beta  occ. eigenvalues --   -7.56159  -7.56023  -7.55501  -7.55458  -7.55357
  Beta  occ. eigenvalues --   -7.55329  -1.03994  -0.98127  -0.95330  -0.84188
  Beta  occ. eigenvalues --   -0.83758  -0.69914  -0.68774  -0.59962  -0.56838
  Beta  occ. eigenvalues --   -0.54055  -0.52469  -0.50609  -0.47288  -0.45852
  Beta  occ. eigenvalues --   -0.43118  -0.41506  -0.39989  -0.38625  -0.31733
  Beta  occ. eigenvalues --   -0.30883
  Beta virt. eigenvalues --   -0.07383  -0.01207  -0.00465   0.00516   0.01273
  Beta virt. eigenvalues --    0.02599   0.03338   0.04371   0.05764   0.05942
  Beta virt. eigenvalues --    0.06900   0.08028   0.08249   0.08685   0.09316
  Beta virt. eigenvalues --    0.10281   0.11256   0.11802   0.12247   0.12669
  Beta virt. eigenvalues --    0.12770   0.13362   0.14060   0.14120   0.14888
  Beta virt. eigenvalues --    0.15029   0.15874   0.17170   0.17681   0.18890
  Beta virt. eigenvalues --    0.19372   0.20188   0.20535   0.21176   0.22819
  Beta virt. eigenvalues --    0.23509   0.24027   0.25358   0.26045   0.26611
  Beta virt. eigenvalues --    0.27679   0.28503   0.28765   0.30548   0.34020
  Beta virt. eigenvalues --    0.34463   0.34624   0.37364   0.46258   0.46285
  Beta virt. eigenvalues --    0.46920   0.48029   0.49360   0.50174   0.50766
  Beta virt. eigenvalues --    0.53151   0.54754   0.56321   0.57342   0.58471
  Beta virt. eigenvalues --    0.59988   0.60183   0.61574   0.63289   0.64280
  Beta virt. eigenvalues --    0.64791   0.68489   0.69613   0.70553   0.73665
  Beta virt. eigenvalues --    0.75782   0.78776   0.79548   0.81073   0.85227
  Beta virt. eigenvalues --    0.87113   0.87571   0.89820   0.90587   0.91069
  Beta virt. eigenvalues --    0.91316   0.91594   0.93074   0.95946   0.95969
  Beta virt. eigenvalues --    0.98021   0.99134   1.00271   1.01857   1.03649
  Beta virt. eigenvalues --    1.04525   1.09517   1.13473   1.14956   1.21370
  Beta virt. eigenvalues --    1.23576   1.25012   1.31153   1.33402   1.33990
  Beta virt. eigenvalues --    1.36290   1.41084   1.50748   1.53592   1.57917
  Beta virt. eigenvalues --    1.58905   1.63090   1.63270   1.67013   1.72706
  Beta virt. eigenvalues --    1.73741   1.79992   1.82371   1.87562   1.90508
  Beta virt. eigenvalues --    1.90940   1.91840   1.96061   1.98200   1.98826
  Beta virt. eigenvalues --    2.01525   2.02844   2.16929   2.20876   2.26853
  Beta virt. eigenvalues --    2.27716   2.30144   2.32799   2.33556   2.41691
  Beta virt. eigenvalues --    2.44023   2.46253   2.48726   2.50193   2.55103
  Beta virt. eigenvalues --    2.64481   2.68191   2.69028   2.71756   2.73586
  Beta virt. eigenvalues --    2.74158   2.76755   2.76998   2.81214   2.82511
  Beta virt. eigenvalues --    2.91370   2.93166   3.03407   3.10398   3.15114
  Beta virt. eigenvalues --    3.24689   3.26986   3.35727   3.42560   3.51696
  Beta virt. eigenvalues --    3.65502   3.77636   3.99286   4.07020   4.11952
  Beta virt. eigenvalues --    4.77151   9.95833  10.00993  23.46898  23.89825
  Beta virt. eigenvalues --   23.95304  24.04550  24.12161  24.22028  25.88930
  Beta virt. eigenvalues --   25.97317  26.18120  26.28672  26.58839  26.90292
  Beta virt. eigenvalues --  216.05739 216.11687
          Condensed to atoms (all electrons):
               1          2          3          4          5          6
     1  C   22.322698  -6.521699  -1.006698  -2.974135  -0.027958  -4.872557
     2  C   -6.521699  23.199775   0.700546   1.121187 -10.884871  -0.601823
     3  C   -1.006698   0.700546  10.409696  -0.998332   1.653681  -4.506396
     4  C   -2.974135   1.121187  -0.998332   7.883505   0.211636   0.408767
     5  C   -0.027958 -10.884871   1.653681   0.211636  23.178463  -8.337569
     6  C   -4.872557  -0.601823  -4.506396   0.408767  -8.337569  24.146480
     7  Cl  -0.192950   0.849145   0.116695   0.031261  -0.529363  -0.827087
     8  Cl  -0.546561  -1.577245  -0.001653   0.032808   1.053954   0.249539
     9  H   -0.182068   0.098784   0.381626   0.048324  -0.046103   0.035834
    10  H    0.054025  -0.010942  -0.031525   0.330216  -0.016556   0.000124
    11  H   -0.065941  -0.024556   0.014608   0.031010   0.502204  -0.140060
               7          8          9         10         11
     1  C   -0.192950  -0.546561  -0.182068   0.054025  -0.065941
     2  C    0.849145  -1.577245   0.098784  -0.010942  -0.024556
     3  C    0.116695  -0.001653   0.381626  -0.031525   0.014608
     4  C    0.031261   0.032808   0.048324   0.330216   0.031010
     5  C   -0.529363   1.053954  -0.046103  -0.016556   0.502204
     6  C   -0.827087   0.249539   0.035834   0.000124  -0.140060
     7  Cl  17.453326  -0.298497   0.002604  -0.011547   0.008741
     8  Cl  -0.298497  17.616724  -0.007943   0.003277  -0.001554
     9  H    0.002604  -0.007943   0.470278   0.000073   0.000649
    10  H   -0.011547   0.003277   0.000073   0.468798  -0.007158
    11  H    0.008741  -0.001554   0.000649  -0.007158   0.470316
          Atomic-Atomic Spin Densities.
               1          2          3          4          5          6
     1  C    0.293318  -0.265540   0.787678  -0.270609   0.140611  -0.543740
     2  C   -0.265540   2.204602  -1.259463   0.536879  -1.071581   0.509319
     3  C    0.787678  -1.259463   0.949041  -0.623382   0.763084  -0.484681
     4  C   -0.270609   0.536879  -0.623382   0.429808  -0.339263   0.253093
     5  C    0.140611  -1.071581   0.763084  -0.339263   1.176014  -0.694861
     6  C   -0.543740   0.509319  -0.484681   0.253093  -0.694861   1.049048
     7  Cl   0.128525  -0.018772   0.067066  -0.060495   0.026804  -0.162032
     8  Cl  -0.058640  -0.085289  -0.056824   0.024367   0.044700   0.120266
     9  H   -0.017169   0.012811  -0.000429   0.003928  -0.008473   0.003993
    10  H   -0.019597   0.047519  -0.061773   0.025921  -0.042115   0.041930
    11  H    0.002567  -0.018268   0.013807  -0.003231   0.030191  -0.024864
               7          8          9         10         11
     1  C    0.128525  -0.058640  -0.017169  -0.019597   0.002567
     2  C   -0.018772  -0.085289   0.012811   0.047519  -0.018268
     3  C    0.067066  -0.056824  -0.000429  -0.061773   0.013807
     4  C   -0.060495   0.024367   0.003928   0.025921  -0.003231
     5  C    0.026804   0.044700  -0.008473  -0.042115   0.030191
     6  C   -0.162032   0.120266   0.003993   0.041930  -0.024864
     7  Cl   0.061763  -0.028703   0.000623  -0.002260   0.001212
     8  Cl  -0.028703   0.055887  -0.001242   0.000081   0.000221
     9  H    0.000623  -0.001242   0.030862   0.002678  -0.000271
    10  H   -0.002260   0.000081   0.002678   0.018729  -0.002144
    11  H    0.001212   0.000221  -0.000271  -0.002144   0.002599
 Mulliken charges and spin densities:
               1          2
     1  C    0.013845   0.177404
     2  C   -0.348301   0.592217
     3  C   -0.732246   0.094124
     4  C   -0.126246  -0.022983
     5  C   -0.757518   0.025111
     6  C    0.444748   0.067471
     7  Cl   0.397670   0.013732
     8  Cl   0.477150   0.014824
     9  H    0.197942   0.027312
    10  H    0.221214   0.008970
    11  H    0.211742   0.001819
 Sum of Mulliken charges =  -0.00000   1.00000
 Mulliken charges and spin densities with hydrogens summed into heavy atoms:
               1          2
     1  C    0.013845   0.177404
     2  C   -0.348301   0.592217
     3  C   -0.534305   0.121436
     4  C    0.094968  -0.014013
     5  C   -0.545776   0.026930
     6  C    0.444748   0.067471
     7  Cl   0.397670   0.013732
     8  Cl   0.477150   0.014824
 Electronic spatial extent (au):  <R**2>=           1256.5780
 Charge=              0.0000 electrons
 Dipole moment (field-independent basis, Debye):
    X=              2.3206    Y=              0.6242    Z=              0.0000  Tot=              2.4031
 Quadrupole moment (field-independent basis, Debye-Ang):
   XX=            -52.7894   YY=            -58.3330   ZZ=            -62.7615
   XY=              0.6893   XZ=             -0.0000   YZ=             -0.0000
 Traceless Quadrupole moment (field-independent basis, Debye-Ang):
   XX=              5.1719   YY=             -0.3717   ZZ=             -4.8002
   XY=              0.6893   XZ=             -0.0000   YZ=             -0.0000
 Octapole moment (field-independent basis, Debye-Ang**2):
  XXX=              5.7129  YYY=             10.1600  ZZZ=             -0.0000  XYY=             -0.0200
  XXY=             -0.6588  XXZ=             -0.0000  XZZ=            -10.0341  YZZ=              0.6636
  YYZ=             -0.0000  XYZ=              0.0000
 Hexadecapole moment (field-independent basis, Debye-Ang**3):
 XXXX=           -838.2453 YYYY=           -667.9655 ZZZZ=            -73.3695 XXXY=             -2.0055
 XXXZ=              0.0000 YYYX=              8.8880 YYYZ=             -0.0000 ZZZX=              0.0000
 ZZZY=             -0.0000 XXYY=           -238.4507 XXZZ=           -185.4005 YYZZ=           -130.8000
 XXYZ=              0.0000 YYXZ=             -0.0000 ZZXY=              1.0719
 N-N= 4.573390042292D+02 E-N=-3.636619265084D+03  KE= 1.147827942479D+03
 Symmetry A'   KE= 1.049538971410D+03
 Symmetry A"   KE= 9.828897106906D+01
 Symmetry A'   SP= 1.000000000000D+00
 Symmetry A"   SP= 4.098771679456D-15
                          Isotropic Fermi Contact Couplings
        Atom                 a.u.       MegaHertz       Gauss      10(-4) cm-1
     1  C(13)             -0.01184     -13.31572      -4.75138      -4.44165
     2  C(13)              0.42510     477.88979     170.52296     159.40688
     3  C(13)              0.00335       3.76694       1.34414       1.25652
     4  C(13)              0.05551      62.40390      22.26726      20.81570
     5  C(13)             -0.00758      -8.52532      -3.04205      -2.84374
     6  C(13)              0.04612      51.84781      18.50059      17.29457
     7  Cl(35)             0.00695       3.04704       1.08726       1.01638
     8  Cl(35)             0.02158       9.46140       3.37606       3.15598
     9  H(1)               0.01204      53.81602      19.20289      17.95109
    10  H(1)               0.00325      14.51560       5.17953       4.84188
    11  H(1)               0.00050       2.25421       0.80436       0.75192
 --------------------------------------------------------
       Center         ----  Spin Dipole Couplings  ----
                      3XX-RR        3YY-RR        3ZZ-RR
 --------------------------------------------------------
     1   Atom        0.087345      0.015647     -0.102992
     2   Atom       -0.563204      0.960120     -0.396916
     3   Atom        0.066004      0.034655     -0.100658
     4   Atom       -0.037774      0.046452     -0.008678
     5   Atom        0.018947      0.034207     -0.053154
     6   Atom       -0.025659      0.024140      0.001518
     7   Atom       -0.043202      0.077448     -0.034246
     8   Atom        0.223139     -0.076500     -0.146639
     9   Atom        0.021877     -0.009960     -0.011917
    10   Atom        0.004461      0.000862     -0.005323
    11   Atom        0.001278      0.001308     -0.002586
 --------------------------------------------------------
                        XY            XZ            YZ
 --------------------------------------------------------
     1   Atom       -0.063316     -0.000000      0.000000
     2   Atom        0.129885      0.000000      0.000000
     3   Atom        0.051632      0.000000      0.000000
     4   Atom        0.018118      0.000000      0.000000
     5   Atom        0.000702      0.000000      0.000000
     6   Atom        0.008124     -0.000000     -0.000000
     7   Atom       -0.064345     -0.000000      0.000000
     8   Atom        0.016932      0.000000     -0.000000
     9   Atom        0.003700      0.000000      0.000000
    10   Atom        0.007147      0.000000      0.000000
    11   Atom       -0.000194     -0.000000      0.000000
 --------------------------------------------------------


 ---------------------------------------------------------------------------------
              Anisotropic Spin Dipole Couplings in Principal Axis System
 ---------------------------------------------------------------------------------

       Atom             a.u.   MegaHertz   Gauss  10(-4) cm-1        Axes

              Baa    -0.1030   -13.820    -4.931    -4.610  0.0000  0.0000  1.0000
     1 C(13)  Bbb    -0.0213    -2.853    -1.018    -0.952  0.5036  0.8639  0.0000
              Bcc     0.1243    16.674     5.950     5.562  0.8639 -0.5036  0.0000
 
              Baa    -0.5742   -77.052   -27.494   -25.702  0.9964 -0.0844 -0.0000
     2 C(13)  Bbb    -0.3969   -53.262   -19.005   -17.766  0.0000  0.0000  1.0000
              Bcc     0.9711   130.314    46.499    43.468  0.0844  0.9964 -0.0000
 
              Baa    -0.1007   -13.507    -4.820    -4.506  0.0000  0.0000  1.0000
     3 C(13)  Bbb    -0.0036    -0.487    -0.174    -0.162 -0.5956  0.8033  0.0000
              Bcc     0.1043    13.994     4.994     4.668  0.8033  0.5956 -0.0000
 
              Baa    -0.0415    -5.570    -1.987    -1.858  0.9794 -0.2017 -0.0000
     4 C(13)  Bbb    -0.0087    -1.164    -0.416    -0.388  0.0000  0.0000  1.0000
              Bcc     0.0502     6.734     2.403     2.246  0.2017  0.9794 -0.0000
 
              Baa    -0.0532    -7.133    -2.545    -2.379  0.0000  0.0000  1.0000
     5 C(13)  Bbb     0.0189     2.538     0.906     0.847  0.9989 -0.0458  0.0000
              Bcc     0.0342     4.595     1.639     1.533  0.0458  0.9989 -0.0000
 
              Baa    -0.0270    -3.617    -1.290    -1.206  0.9876 -0.1570 -0.0000
     6 C(13)  Bbb     0.0015     0.204     0.073     0.068  0.0000  0.0000  1.0000
              Bcc     0.0254     3.413     1.218     1.138  0.1570  0.9876 -0.0000
 
              Baa    -0.0711    -3.720    -1.327    -1.241  0.9176  0.3975  0.0000
     7 Cl(35) Bbb    -0.0342    -1.792    -0.640    -0.598  0.0000  0.0000  1.0000
              Bcc     0.1053     5.512     1.967     1.839 -0.3975  0.9176 -0.0000
 
              Baa    -0.1466    -7.675    -2.739    -2.560  0.0000  0.0000  1.0000
     8 Cl(35) Bbb    -0.0775    -4.054    -1.446    -1.352 -0.0562  0.9984  0.0000
              Bcc     0.2241    11.729     4.185     3.912  0.9984  0.0562  0.0000
 
              Baa    -0.0119    -6.359    -2.269    -2.121  0.0000  0.0000  1.0000
     9 H(1)   Bbb    -0.0104    -5.540    -1.977    -1.848 -0.1139  0.9935  0.0000
              Bcc     0.0223    11.899     4.246     3.969  0.9935  0.1139 -0.0000
 
              Baa    -0.0053    -2.840    -1.013    -0.947  0.0000  0.0000  1.0000
    10 H(1)   Bbb    -0.0047    -2.512    -0.896    -0.838 -0.6148  0.7887  0.0000
              Bcc     0.0100     5.352     1.910     1.785  0.7887  0.6148 -0.0000
 
              Baa    -0.0026    -1.380    -0.492    -0.460  0.0000  0.0000  1.0000
    11 H(1)   Bbb     0.0011     0.586     0.209     0.195  0.7340  0.6791 -0.0000
              Bcc     0.0015     0.794     0.283     0.265 -0.6791  0.7340 -0.0000
 

 ---------------------------------------------------------------------------------

 Calling FoFJK, ICntrl=      2127 FMM=F ISym2X=1 I1Cent= 0 IOpClX= 1 NMat=1 NMatS=1 NMatT=0.
 ***** Axes restored to original set *****
 -------------------------------------------------------------------
 Center     Atomic                   Forces (Hartrees/Bohr)
 Number     Number              X              Y              Z
 -------------------------------------------------------------------
      1        6           0.032116209   -0.028086362   -0.000000000
      2        6          -0.003059566    0.008719411    0.000000000
      3        6           0.000787031   -0.008072729   -0.000000000
      4        6           0.000796609    0.000203578   -0.000000000
      5        6           0.002164254   -0.002565997   -0.000000000
      6        6           0.026443840    0.017087901   -0.000000000
      7       17          -0.018295584   -0.011592432    0.000000000
      8       17          -0.020865738    0.012848478    0.000000000
      9        1          -0.008330911   -0.005291976    0.000000000
     10        1          -0.009479587    0.004214312    0.000000000
     11        1          -0.002276556    0.012535815    0.000000000
 -------------------------------------------------------------------
 Cartesian Forces:  Max     0.032116209 RMS     0.011562251

 GradGradGradGradGradGradGradGradGradGradGradGradGradGradGradGradGradGrad
 Berny optimization.
 FormGI is forming the generalized inverse of G from B-inverse, IUseBI=4.
 Internal  Forces:  Max     0.024503683 RMS     0.006775491
 Search for a local minimum.
 Step number   1 out of a maximum of   57
 All quantities printed in internal units (Hartrees-Bohrs-Radians)
 Mixed Optimization -- RFO/linear search
 Second derivative matrix not updated -- first step.
 ITU=  0
     Eigenvalues ---    0.01899   0.01950   0.02004   0.02021   0.02039
     Eigenvalues ---    0.02047   0.02154   0.02376   0.16000   0.16000
     Eigenvalues ---    0.16000   0.22076   0.23385   0.24890   0.25000
     Eigenvalues ---    0.25000   0.33538   0.33802   0.34028   0.37143
     Eigenvalues ---    0.38373   0.40346   0.42301   0.43441   0.44823
     Eigenvalues ---    0.48608   0.50402
 RFO step:  Lambda=-5.81187909D-03 EMin= 1.89850623D-02
 Linear search not attempted -- first point.
 Iteration  1 RMS(Cart)=  0.01733288 RMS(Int)=  0.00013505
 Iteration  2 RMS(Cart)=  0.00016405 RMS(Int)=  0.00003036
 Iteration  3 RMS(Cart)=  0.00000002 RMS(Int)=  0.00003036
 ClnCor:  largest displacement from symmetrization is 8.89D-12 for atom    10.
 Variable       Old X    -DE/DX   Delta X   Delta X   Delta X     New X
                                 (Linear)    (Quad)   (Total)
    R1        2.60091  -0.00575   0.00000  -0.01097  -0.01092   2.58999
    R2        2.68232  -0.01130   0.00000  -0.02622  -0.02621   2.65611
    R3        3.17526   0.02450   0.00000   0.06290   0.06290   3.23816
    R4        2.58621  -0.00297   0.00000  -0.00529  -0.00525   2.58096
    R5        2.66318  -0.00864   0.00000  -0.01933  -0.01934   2.64383
    R6        2.07282  -0.00987   0.00000  -0.02851  -0.02851   2.04431
    R7        2.64679  -0.01150   0.00000  -0.02542  -0.02547   2.62132
    R8        2.07665  -0.01033   0.00000  -0.03004  -0.03004   2.04661
    R9        2.66091  -0.01237   0.00000  -0.02806  -0.02809   2.63282
   R10        2.08117  -0.01259   0.00000  -0.03690  -0.03690   2.04428
   R11        3.19331   0.02166   0.00000   0.05741   0.05741   3.25072
    A1        2.00079   0.00558   0.00000   0.02227   0.02232   2.02311
    A2        2.13279  -0.00302   0.00000  -0.01203  -0.01206   2.12074
    A3        2.14960  -0.00256   0.00000  -0.01024  -0.01027   2.13934
    A4        2.25658  -0.01054   0.00000  -0.03936  -0.03925   2.21733
    A5        2.00481   0.00409   0.00000   0.01872   0.01873   2.02354
    A6        2.14216  -0.00215   0.00000  -0.01002  -0.01002   2.13213
    A7        2.13622  -0.00194   0.00000  -0.00870  -0.00871   2.12751
    A8        2.09658   0.00065   0.00000   0.00151   0.00145   2.09803
    A9        2.09310   0.00067   0.00000   0.00526   0.00529   2.09839
   A10        2.09351  -0.00132   0.00000  -0.00677  -0.00674   2.08677
   A11        2.12092  -0.00067   0.00000  -0.00535  -0.00543   2.11549
   A12        2.08334   0.00238   0.00000   0.01503   0.01507   2.09841
   A13        2.07892  -0.00171   0.00000  -0.00968  -0.00964   2.06929
   A14        2.08669   0.00089   0.00000   0.00221   0.00218   2.08887
   A15        2.10838  -0.00064   0.00000  -0.00186  -0.00185   2.10653
   A16        2.08812  -0.00025   0.00000  -0.00035  -0.00034   2.08778
    D1        0.00000  -0.00000   0.00000  -0.00000   0.00000   0.00000
    D2        3.14159   0.00000   0.00000   0.00000   0.00000   3.14159
    D3       -0.00000  -0.00000   0.00000  -0.00000   0.00000   0.00000
    D4        3.14159   0.00000   0.00000   0.00000   0.00000   3.14159
    D5        3.14159  -0.00000   0.00000  -0.00000   0.00000   3.14159
    D6        0.00000  -0.00000   0.00000  -0.00000  -0.00000   0.00000
    D7       -0.00000   0.00000   0.00000   0.00000   0.00000   0.00000
    D8        3.14159  -0.00000   0.00000  -0.00000   0.00000   3.14159
    D9        0.00000  -0.00000   0.00000  -0.00000   0.00000   0.00000
   D10        3.14159  -0.00000   0.00000  -0.00000   0.00000   3.14159
   D11        3.14159   0.00000   0.00000   0.00000   0.00000   3.14159
   D12       -0.00000   0.00000   0.00000   0.00000   0.00000   0.00000
   D13       -0.00000   0.00000   0.00000   0.00000   0.00000   0.00000
   D14        3.14159  -0.00000   0.00000  -0.00000   0.00000   3.14159
   D15        3.14159   0.00000   0.00000   0.00000   0.00000   3.14159
   D16        0.00000  -0.00000   0.00000  -0.00000   0.00000   0.00000
   D17        0.00000   0.00000   0.00000   0.00000  -0.00000   0.00000
   D18        3.14159  -0.00000   0.00000  -0.00000   0.00000   3.14159
   D19        3.14159   0.00000   0.00000   0.00000   0.00000   3.14159
   D20       -0.00000   0.00000   0.00000   0.00000   0.00000   0.00000
         Item               Value     Threshold  Converged?
 Maximum Force            0.024504     0.000450     NO 
 RMS     Force            0.006775     0.000300     NO 
 Maximum Displacement     0.048696     0.001800     NO 
 RMS     Displacement     0.017353     0.001200     NO 
 Predicted change in Energy=-2.952871D-03
 GradGradGradGradGradGradGradGradGradGradGradGradGradGradGradGradGradGrad

                          Input orientation:                          
 ---------------------------------------------------------------------
 Center     Atomic      Atomic             Coordinates (Angstroms)
 Number     Number       Type             X           Y           Z
 ---------------------------------------------------------------------
      1          6           0       -3.112880    0.145691   -0.000000
      2          6           0       -1.899679    0.783330   -0.000000
      3          6           0       -0.664190    0.201147   -0.000000
      4          6           0       -0.646860   -1.197802   -0.000000
      5          6           0       -1.836895   -1.910527   -0.000000
      6          6           0       -3.068484   -1.259162   -0.000000
      7         17           0       -4.519202   -2.183565    0.000000
      8         17           0       -4.585297    1.022209    0.000000
      9          1           0        0.247102    0.784105   -0.000000
     10          1           0        0.295574   -1.731424   -0.000000
     11          1           0       -1.823910   -2.992233   -0.000000
 ---------------------------------------------------------------------
                    Distance matrix (angstroms):
                    1          2          3          4          5
     1  C    0.000000
     2  C    1.370562   0.000000
     3  C    2.449318   1.365786   0.000000
     4  C    2.808243   2.344022   1.399057   0.000000
     5  C    2.419952   2.694588   2.415451   1.387141   0.000000
     6  C    1.405554   2.353269   2.813029   2.422401   1.393229
     7  Cl   2.720878   3.957824   4.532987   3.995843   2.696168
     8  Cl   1.713563   2.696221   4.006149   4.521033   4.019285
     9  H    3.420095   2.146781   1.081801   2.174195   3.406477
    10  H    3.891158   3.338131   2.157771   1.083020   2.139977
    11  H    3.392346   3.776323   3.397444   2.146026   1.081784
                    6          7          8          9         10
     6  C    0.000000
     7  Cl   1.720205   0.000000
     8  Cl   2.739594   3.206456   0.000000
     9  H    3.894618   5.614688   4.838262   0.000000
    10  H    3.397044   4.835959   5.604051   2.515995   0.000000
    11  H    2.133659   2.813991   4.872474   4.306950   2.466141
                   11
    11  H    0.000000
 Stoichiometry    C6H3Cl2(2)
 Framework group  CS[SG(C6H3Cl2)]
 Deg. of freedom    19
 Full point group                 CS      NOp   2
 Largest Abelian subgroup         CS      NOp   2
 Largest concise Abelian subgroup C1      NOp   1
                         Standard orientation:                         
 ---------------------------------------------------------------------
 Center     Atomic      Atomic             Coordinates (Angstroms)
 Number     Number       Type             X           Y           Z
 ---------------------------------------------------------------------
      1          6           0       -0.060730   -0.735535    0.000000
      2          6           0        1.144975   -1.387239   -0.000000
      3          6           0        2.387150   -0.819462   -0.000000
      4          6           0        2.420747    0.579191   -0.000000
      5          6           0        1.239079    1.305706   -0.000000
      6          6           0       -0.000000    0.668706    0.000000
      7         17           0       -1.439871    1.609917    0.000000
      8         17           0       -1.543240   -1.594872    0.000000
      9          1           0        3.291602   -1.412977   -0.000000
     10          1           0        3.369321    1.101817   -0.000000
     11          1           0        1.264642    2.387188   -0.000000
 ---------------------------------------------------------------------
 Rotational constants (GHZ):           1.9740638           1.4362618           0.8313788
 Standard basis: 6-311++G(d,p) (5D, 7F)
 There are   166 symmetry adapted cartesian basis functions of A'  symmetry.
 There are    55 symmetry adapted cartesian basis functions of A"  symmetry.
 There are   158 symmetry adapted basis functions of A'  symmetry.
 There are    55 symmetry adapted basis functions of A"  symmetry.
   213 basis functions,   349 primitive gaussians,   221 cartesian basis functions
    37 alpha electrons       36 beta electrons
       nuclear repulsion energy       456.9907920214 Hartrees.
 NAtoms=   11 NActive=   11 NUniq=   11 SFac= 1.00D+00 NAtFMM=   60 NAOKFM=F Big=F
 Integral buffers will be    131072 words long.
 Raffenetti 2 integral format.
 Two-electron integral symmetry is turned on.
 One-electron integrals computed using PRISM.
 NBasis=   213 RedAO= T EigKep=  1.21D-06  NBF=   158    55
 NBsUse=   213 1.00D-06 EigRej= -1.00D+00 NBFU=   158    55
 Initial guess from the checkpoint file:  "frequency_chks/123-12_-ClBzNeutralRadical_Freq.chk"
 B after Tr=    -0.000000    0.000000   -0.000000
         Rot=    0.999866    0.000000   -0.000000   -0.016343 Ang=  -1.87 deg.
 Initial guess orbital symmetries:
 Alpha Orbitals:
       Occupied  (A') (A') (A') (A') (A') (A') (A') (A') (A') (A')
                 (A') (A') (A") (A') (A") (A') (A') (A') (A') (A')
                 (A') (A') (A') (A') (A') (A') (A') (A") (A') (A')
                 (A") (A") (A') (A') (A") (A') (A")
       Virtual   (A") (A") (A') (A') (A') (A') (A') (A") (A') (A')
                 (A') (A") (A") (A') (A') (A") (A') (A') (A") (A')
                 (A') (A') (A") (A') (A") (A') (A') (A') (A") (A')
                 (A') (A') (A") (A') (A') (A') (A') (A') (A') (A')
                 (A') (A') (A') (A') (A') (A') (A') (A") (A') (A')
                 (A') (A') (A") (A') (A') (A") (A') (A') (A") (A")
                 (A') (A') (A") (A") (A') (A') (A") (A') (A') (A')
                 (A') (A') (A") (A') (A') (A') (A') (A') (A') (A")
                 (A") (A') (A') (A") (A') (A') (A') (A') (A") (A")
                 (A') (A") (A') (A') (A") (A') (A') (A") (A') (A")
                 (A') (A') (A') (A') (A") (A") (A') (A') (A') (A")
                 (A') (A') (A") (A') (A") (A') (A") (A') (A") (A')
                 (A') (A') (A") (A') (A") (A') (A") (A") (A') (A')
                 (A') (A') (A') (A') (A') (A") (A') (A') (A') (A')
                 (A') (A') (A") (A") (A") (A") (A') (A") (A') (A')
                 (A') (A') (A') (A') (A') (A') (A') (A') (A') (A')
                 (A') (A') (A') (A') (A') (A') (A') (A') (A") (A")
                 (A') (A') (A') (A') (A') (A')
 Beta  Orbitals:
       Occupied  (A') (A') (A') (A') (A') (A') (A') (A') (A') (A')
                 (A') (A') (A") (A') (A") (A') (A') (A') (A') (A')
                 (A') (A') (A') (A') (A') (A') (A') (A") (A') (A')
                 (A") (A") (A') (A') (A") (A")
       Virtual   (A') (A") (A') (A") (A') (A') (A') (A') (A") (A')
                 (A') (A") (A') (A") (A') (A') (A") (A') (A') (A")
                 (A') (A') (A") (A') (A') (A") (A') (A') (A') (A")
                 (A') (A') (A') (A") (A') (A') (A') (A') (A') (A')
                 (A') (A') (A') (A') (A') (A') (A') (A') (A') (A")
                 (A') (A') (A') (A") (A') (A') (A") (A') (A') (A')
                 (A") (A") (A') (A") (A") (A') (A') (A") (A') (A')
                 (A') (A') (A') (A") (A') (A') (A') (A') (A') (A')
                 (A") (A") (A') (A') (A") (A') (A') (A') (A') (A")
                 (A") (A') (A") (A') (A') (A') (A") (A') (A") (A')
                 (A") (A') (A') (A') (A') (A") (A") (A') (A') (A')
                 (A") (A') (A') (A") (A') (A") (A') (A") (A') (A")
                 (A') (A') (A') (A") (A') (A") (A') (A") (A") (A')
                 (A') (A') (A') (A') (A') (A') (A") (A') (A') (A')
                 (A') (A') (A') (A") (A") (A") (A") (A') (A") (A')
                 (A') (A') (A') (A') (A') (A') (A') (A') (A') (A')
                 (A') (A') (A') (A') (A') (A') (A') (A') (A') (A")
                 (A") (A') (A') (A') (A') (A') (A')
 Initial guess <Sx>= 0.0000 <Sy>= 0.0000 <Sz>= 0.5000 <S**2>= 0.7628 S= 0.5064
 ExpMin= 3.60D-02 ExpMax= 1.06D+05 ExpMxC= 3.62D+03 IAcc=3 IRadAn=         5 AccDes= 0.00D+00
 Harris functional with IExCor= 1009 and IRadAn=       5 diagonalized for initial guess.
 HarFok:  IExCor= 1009 AccDes= 0.00D+00 IRadAn=         5 IDoV= 1 UseB2=F ITyADJ=14
 ICtDFT=  3500011 ScaDFX=  1.000000  1.000000  1.000000  1.000000
 FoFCou: FMM=F IPFlag=           0 FMFlag=      100000 FMFlg1=           0
         NFxFlg=           0 DoJE=T BraDBF=F KetDBF=T FulRan=T
         wScrn=  0.000000 ICntrl=       500 IOpCl=  0 I1Cent=   200000004 NGrid=           0
         NMat0=    1 NMatS0=      1 NMatT0=    0 NMatD0=    1 NMtDS0=    0 NMtDT0=    0
 Petite list used in FoFCou.
 Keep R1 and R2 ints in memory in symmetry-blocked form, NReq=411615841.
 Requested convergence on RMS density matrix=1.00D-08 within 128 cycles.
 Requested convergence on MAX density matrix=1.00D-06.
 Requested convergence on             energy=1.00D-06.
 No special actions if energy rises.
 SCF Done:  E(UM062X) =  -1150.70823560     A.U. after   16 cycles
            NFock= 16  Conv=0.77D-08     -V/T= 2.0024
 <Sx>= 0.0000 <Sy>= 0.0000 <Sz>= 0.5000 <S**2>= 0.7625 S= 0.5062
 <L.S>=  0.00000000000    
 Annihilation of the first spin contaminant:
 S**2 before annihilation     0.7625,   after     0.7501
 Calling FoFJK, ICntrl=      2127 FMM=F ISym2X=1 I1Cent= 0 IOpClX= 1 NMat=1 NMatS=1 NMatT=0.
 ***** Axes restored to original set *****
 -------------------------------------------------------------------
 Center     Atomic                   Forces (Hartrees/Bohr)
 Number     Number              X              Y              Z
 -------------------------------------------------------------------
      1        6           0.008183264   -0.009990795   -0.000000000
      2        6          -0.002882189    0.005158736    0.000000000
      3        6           0.000306856   -0.003358388   -0.000000000
      4        6           0.001244287    0.002029132   -0.000000000
      5        6          -0.001179465   -0.002302570    0.000000000
      6        6           0.004568094    0.007547529   -0.000000000
      7       17          -0.004631136   -0.003384384    0.000000000
      8       17          -0.006015498    0.004373500    0.000000000
      9        1           0.000580690    0.000300901   -0.000000000
     10        1           0.000259031    0.000041930   -0.000000000
     11        1          -0.000433934   -0.000415590    0.000000000
 -------------------------------------------------------------------
 Cartesian Forces:  Max     0.009990795 RMS     0.003448049

 GradGradGradGradGradGradGradGradGradGradGradGradGradGradGradGradGradGrad
 Berny optimization.
 Using GEDIIS/GDIIS optimizer.
 FormGI is forming the generalized inverse of G from B-inverse, IUseBI=4.
 Internal  Forces:  Max     0.007405695 RMS     0.001679345
 Search for a local minimum.
 Step number   2 out of a maximum of   57
 All quantities printed in internal units (Hartrees-Bohrs-Radians)
 Mixed Optimization -- RFO/linear search
 Update second derivatives using D2CorX and points    1    2
 DE= -3.42D-03 DEPred=-2.95D-03 R= 1.16D+00
 TightC=F SS=  1.41D+00  RLast= 1.27D-01 DXNew= 5.0454D-01 3.8214D-01
 Trust test= 1.16D+00 RLast= 1.27D-01 DXMaxT set to 3.82D-01
 ITU=  1  0
 Use linear search instead of GDIIS.
     Eigenvalues ---    0.01899   0.01950   0.02005   0.02021   0.02040
     Eigenvalues ---    0.02047   0.02154   0.02370   0.15929   0.16000
     Eigenvalues ---    0.16021   0.21251   0.22098   0.24349   0.25000
     Eigenvalues ---    0.25084   0.31506   0.33665   0.33930   0.35461
     Eigenvalues ---    0.37704   0.40183   0.42960   0.43836   0.44912
     Eigenvalues ---    0.49516   0.51700
 RFO step:  Lambda=-2.83767339D-04 EMin= 1.89860902D-02
 Quartic linear search produced a step of  0.22163.
 Iteration  1 RMS(Cart)=  0.00491250 RMS(Int)=  0.00002558
 Iteration  2 RMS(Cart)=  0.00002971 RMS(Int)=  0.00001310
 Iteration  3 RMS(Cart)=  0.00000000 RMS(Int)=  0.00001310
 ClnCor:  largest displacement from symmetrization is 1.34D-10 for atom    11.
 Variable       Old X    -DE/DX   Delta X   Delta X   Delta X     New X
                                 (Linear)    (Quad)   (Total)
    R1        2.58999  -0.00010  -0.00242   0.00151  -0.00089   2.58910
    R2        2.65611  -0.00310  -0.00581  -0.00462  -0.01042   2.64570
    R3        3.23816   0.00741   0.01394   0.01263   0.02657   3.26473
    R4        2.58096   0.00241  -0.00116   0.00674   0.00559   2.58655
    R5        2.64383  -0.00044  -0.00429   0.00244  -0.00186   2.64197
    R6        2.04431   0.00065  -0.00632   0.00729   0.00097   2.04528
    R7        2.62132   0.00166  -0.00564   0.00904   0.00337   2.62469
    R8        2.04661   0.00021  -0.00666   0.00596  -0.00069   2.04592
    R9        2.63282  -0.00007  -0.00623   0.00459  -0.00165   2.63117
   R10        2.04428   0.00041  -0.00818   0.00791  -0.00027   2.04401
   R11        3.25072   0.00572   0.01272   0.00883   0.02156   3.27227
    A1        2.02311   0.00230   0.00495   0.00653   0.01151   2.03462
    A2        2.12074  -0.00227  -0.00267  -0.00854  -0.01123   2.10951
    A3        2.13934  -0.00004  -0.00228   0.00201  -0.00028   2.13906
    A4        2.21733  -0.00299  -0.00870  -0.00794  -0.01660   2.20073
    A5        2.02354   0.00108   0.00415   0.00354   0.00770   2.03124
    A6        2.13213  -0.00048  -0.00222  -0.00115  -0.00337   2.12876
    A7        2.12751  -0.00061  -0.00193  -0.00239  -0.00432   2.12319
    A8        2.09803   0.00006   0.00032   0.00102   0.00131   2.09933
    A9        2.09839  -0.00020   0.00117  -0.00280  -0.00161   2.09678
   A10        2.08677   0.00013  -0.00149   0.00178   0.00030   2.08707
   A11        2.11549  -0.00131  -0.00120  -0.00619  -0.00743   2.10806
   A12        2.09841   0.00111   0.00334   0.00439   0.00775   2.10616
   A13        2.06929   0.00020  -0.00214   0.00180  -0.00032   2.06896
   A14        2.08887   0.00084   0.00048   0.00303   0.00351   2.09238
   A15        2.10653   0.00016  -0.00041   0.00147   0.00106   2.10759
   A16        2.08778  -0.00101  -0.00008  -0.00450  -0.00457   2.08321
    D1       -0.00000   0.00000   0.00000   0.00000   0.00000   0.00000
    D2        3.14159  -0.00000   0.00000   0.00000   0.00000   3.14159
    D3        0.00000  -0.00000   0.00000  -0.00000   0.00000   0.00000
    D4        3.14159  -0.00000   0.00000  -0.00000   0.00000   3.14159
    D5        3.14159  -0.00000   0.00000  -0.00000   0.00000   3.14159
    D6        0.00000  -0.00000   0.00000  -0.00000  -0.00000   0.00000
    D7       -0.00000   0.00000   0.00000   0.00000   0.00000   0.00000
    D8        3.14159   0.00000   0.00000   0.00000   0.00000   3.14159
    D9        0.00000  -0.00000   0.00000  -0.00000  -0.00000   0.00000
   D10        3.14159  -0.00000   0.00000  -0.00000   0.00000   3.14159
   D11        3.14159  -0.00000   0.00000  -0.00000   0.00000   3.14159
   D12       -0.00000  -0.00000   0.00000  -0.00000   0.00000   0.00000
   D13       -0.00000   0.00000   0.00000   0.00000   0.00000   0.00000
   D14        3.14159   0.00000   0.00000   0.00000   0.00000   3.14159
   D15        3.14159  -0.00000   0.00000   0.00000   0.00000   3.14159
   D16       -0.00000  -0.00000   0.00000   0.00000   0.00000   0.00000
   D17        0.00000   0.00000   0.00000  -0.00000   0.00000   0.00000
   D18        3.14159   0.00000   0.00000   0.00000   0.00000   3.14159
   D19        3.14159   0.00000   0.00000  -0.00000   0.00000   3.14159
   D20       -0.00000   0.00000   0.00000  -0.00000   0.00000   0.00000
         Item               Value     Threshold  Converged?
 Maximum Force            0.007406     0.000450     NO 
 RMS     Force            0.001679     0.000300     NO 
 Maximum Displacement     0.016027     0.001800     NO 
 RMS     Displacement     0.004910     0.001200     NO 
 Predicted change in Energy=-2.546178D-04
 GradGradGradGradGradGradGradGradGradGradGradGradGradGradGradGradGradGrad

                          Input orientation:                          
 ---------------------------------------------------------------------
 Center     Atomic      Atomic             Coordinates (Angstroms)
 Number     Number       Type             X           Y           Z
 ---------------------------------------------------------------------
      1          6           0       -3.106317    0.141751   -0.000000
      2          6           0       -1.900262    0.791811   -0.000000
      3          6           0       -0.665707    0.200768   -0.000000
      4          6           0       -0.646224   -1.197168   -0.000000
      5          6           0       -1.835747   -1.914211   -0.000000
      6          6           0       -3.063576   -1.257638   -0.000000
      7         17           0       -4.523911   -2.188177    0.000000
      8         17           0       -4.590128    1.026615    0.000000
      9          1           0        0.247633    0.781473   -0.000000
     10          1           0        0.297571   -1.727627   -0.000000
     11          1           0       -1.828053   -2.995826   -0.000000
 ---------------------------------------------------------------------
                    Distance matrix (angstroms):
                    1          2          3          4          5
     1  C    0.000000
     2  C    1.370090   0.000000
     3  C    2.441323   1.368743   0.000000
     4  C    2.800850   2.351308   1.398072   0.000000
     5  C    2.416884   2.706791   2.417049   1.388925   0.000000
     6  C    1.400042   2.356595   2.806549   2.418107   1.392354
     7  Cl   2.727295   3.970374   4.537928   4.002318   2.702089
     8  Cl   1.727622   2.700095   4.010374   4.527647   4.029276
     9  H    3.414414   2.147920   1.082316   2.171175   3.406931
    10  H    3.883431   3.343358   2.155601   1.082653   2.141462
    11  H    3.387971   3.788325   3.401362   2.152182   1.081643
                    6          7          8          9         10
     6  C    0.000000
     7  Cl   1.731613   0.000000
     8  Cl   2.747394   3.215474   0.000000
     9  H    3.888711   5.620183   4.843968   0.000000
    10  H    3.393847   4.843428   5.610299   2.509597   0.000000
    11  H    2.132560   2.814240   4.879456   4.310042   2.475198
                   11
    11  H    0.000000
 Stoichiometry    C6H3Cl2(2)
 Framework group  CS[SG(C6H3Cl2)]
 Deg. of freedom    19
 Full point group                 CS      NOp   2
 Largest Abelian subgroup         CS      NOp   2
 Largest concise Abelian subgroup C1      NOp   1
                         Standard orientation:                         
 ---------------------------------------------------------------------
 Center     Atomic      Atomic             Coordinates (Angstroms)
 Number     Number       Type             X           Y           Z
 ---------------------------------------------------------------------
      1          6           0       -0.045974   -0.732012    0.000000
      2          6           0        1.158577   -1.384856   -0.000000
      3          6           0        2.394493   -0.796666   -0.000000
      4          6           0        2.417205    0.601222   -0.000000
      5          6           0        1.229342    1.321009   -0.000000
      6          6           0        0.000000    0.667274   -0.000000
      7         17           0       -1.458182    1.601184    0.000000
      8         17           0       -1.531824   -1.613446    0.000000
      9          1           0        3.306490   -1.379479   -0.000000
     10          1           0        3.362223    1.129499   -0.000000
     11          1           0        1.239534    2.402604   -0.000000
 ---------------------------------------------------------------------
 Rotational constants (GHZ):           1.9640743           1.4324746           0.8283368
 Standard basis: 6-311++G(d,p) (5D, 7F)
 There are   166 symmetry adapted cartesian basis functions of A'  symmetry.
 There are    55 symmetry adapted cartesian basis functions of A"  symmetry.
 There are   158 symmetry adapted basis functions of A'  symmetry.
 There are    55 symmetry adapted basis functions of A"  symmetry.
   213 basis functions,   349 primitive gaussians,   221 cartesian basis functions
    37 alpha electrons       36 beta electrons
       nuclear repulsion energy       456.1014328834 Hartrees.
 NAtoms=   11 NActive=   11 NUniq=   11 SFac= 1.00D+00 NAtFMM=   60 NAOKFM=F Big=F
 Integral buffers will be    131072 words long.
 Raffenetti 2 integral format.
 Two-electron integral symmetry is turned on.
 One-electron integrals computed using PRISM.
 NBasis=   213 RedAO= T EigKep=  1.23D-06  NBF=   158    55
 NBsUse=   213 1.00D-06 EigRej= -1.00D+00 NBFU=   158    55
 Initial guess from the checkpoint file:  "frequency_chks/123-12_-ClBzNeutralRadical_Freq.chk"
 B after Tr=     0.000000   -0.000000    0.000000
         Rot=    0.999989    0.000000   -0.000000   -0.004585 Ang=  -0.53 deg.
 Initial guess orbital symmetries:
 Alpha Orbitals:
       Occupied  (A') (A') (A') (A') (A') (A') (A') (A') (A') (A')
                 (A') (A') (A") (A') (A") (A') (A') (A') (A') (A')
                 (A') (A') (A') (A') (A') (A') (A') (A") (A') (A')
                 (A") (A") (A') (A') (A") (A') (A")
       Virtual   (A") (A") (A') (A') (A') (A') (A') (A") (A') (A')
                 (A') (A") (A") (A') (A') (A") (A') (A') (A") (A')
                 (A') (A') (A") (A') (A') (A") (A') (A') (A") (A')
                 (A') (A') (A") (A') (A') (A') (A') (A') (A') (A')
                 (A') (A') (A') (A') (A') (A') (A') (A") (A') (A')
                 (A') (A') (A") (A') (A') (A") (A') (A') (A") (A")
                 (A') (A') (A") (A") (A') (A') (A") (A') (A') (A')
                 (A') (A') (A") (A') (A') (A') (A') (A') (A') (A")
                 (A") (A') (A') (A") (A') (A') (A') (A') (A") (A")
                 (A') (A") (A') (A') (A") (A') (A') (A") (A') (A")
                 (A') (A') (A') (A') (A") (A') (A") (A') (A') (A")
                 (A') (A') (A") (A') (A") (A') (A") (A') (A") (A')
                 (A') (A') (A") (A') (A") (A') (A") (A") (A') (A')
                 (A') (A') (A') (A') (A') (A") (A') (A') (A') (A')
                 (A') (A') (A") (A") (A") (A") (A') (A") (A') (A')
                 (A') (A') (A') (A') (A') (A') (A') (A') (A') (A')
                 (A') (A') (A') (A') (A') (A') (A') (A') (A") (A")
                 (A') (A') (A') (A') (A') (A')
 Beta  Orbitals:
       Occupied  (A') (A') (A') (A') (A') (A') (A') (A') (A') (A')
                 (A') (A') (A") (A') (A") (A') (A') (A') (A') (A')
                 (A') (A') (A') (A') (A') (A') (A') (A") (A') (A')
                 (A") (A") (A') (A') (A") (A")
       Virtual   (A') (A") (A') (A") (A') (A') (A') (A') (A") (A')
                 (A') (A") (A') (A") (A') (A') (A") (A') (A') (A")
                 (A') (A') (A') (A") (A') (A") (A') (A') (A') (A")
                 (A') (A') (A') (A") (A') (A') (A') (A') (A') (A')
                 (A') (A') (A') (A') (A') (A') (A') (A') (A') (A")
                 (A') (A') (A') (A") (A') (A') (A") (A') (A') (A')
                 (A") (A") (A') (A") (A") (A') (A') (A") (A') (A')
                 (A') (A') (A') (A") (A') (A') (A') (A') (A') (A')
                 (A") (A") (A') (A') (A") (A') (A') (A') (A') (A")
                 (A") (A') (A") (A') (A') (A') (A") (A') (A") (A')
                 (A") (A') (A') (A') (A') (A") (A') (A") (A') (A')
                 (A") (A') (A') (A") (A') (A") (A') (A") (A') (A")
                 (A') (A') (A') (A") (A') (A") (A') (A") (A") (A')
                 (A') (A') (A') (A') (A') (A') (A") (A') (A') (A')
                 (A') (A') (A') (A") (A") (A") (A") (A') (A") (A')
                 (A') (A') (A') (A') (A') (A') (A') (A') (A') (A')
                 (A') (A') (A') (A') (A') (A') (A') (A') (A') (A")
                 (A") (A') (A') (A') (A') (A') (A')
 Initial guess <Sx>= 0.0000 <Sy>= 0.0000 <Sz>= 0.5000 <S**2>= 0.7625 S= 0.5062
 Keep R1 and R2 ints in memory in symmetry-blocked form, NReq=411615841.
 Requested convergence on RMS density matrix=1.00D-08 within 128 cycles.
 Requested convergence on MAX density matrix=1.00D-06.
 Requested convergence on             energy=1.00D-06.
 No special actions if energy rises.
 SCF Done:  E(UM062X) =  -1150.70852259     A.U. after   15 cycles
            NFock= 15  Conv=0.97D-08     -V/T= 2.0025
 <Sx>= 0.0000 <Sy>= 0.0000 <Sz>= 0.5000 <S**2>= 0.7626 S= 0.5063
 <L.S>=  0.00000000000    
 Annihilation of the first spin contaminant:
 S**2 before annihilation     0.7626,   after     0.7501
 Calling FoFJK, ICntrl=      2127 FMM=F ISym2X=1 I1Cent= 0 IOpClX= 1 NMat=1 NMatS=1 NMatT=0.
 ***** Axes restored to original set *****
 -------------------------------------------------------------------
 Center     Atomic                   Forces (Hartrees/Bohr)
 Number     Number              X              Y              Z
 -------------------------------------------------------------------
      1        6           0.000946945   -0.001911021   -0.000000000
      2        6          -0.000401790    0.000770382    0.000000000
      3        6           0.000078529   -0.000606274   -0.000000000
      4        6          -0.000230150    0.000611804    0.000000000
      5        6          -0.000155175   -0.000486511    0.000000000
      6        6          -0.000031076    0.001395093    0.000000000
      7       17          -0.000280466   -0.000280037    0.000000000
      8       17          -0.000831403    0.000776189    0.000000000
      9        1           0.000355147    0.000161393   -0.000000000
     10        1           0.000457013   -0.000066301   -0.000000000
     11        1           0.000092425   -0.000364716   -0.000000000
 -------------------------------------------------------------------
 Cartesian Forces:  Max     0.001911021 RMS     0.000557876

 GradGradGradGradGradGradGradGradGradGradGradGradGradGradGradGradGradGrad
 Berny optimization.
 Using GEDIIS/GDIIS optimizer.
 FormGI is forming the generalized inverse of G from B-inverse, IUseBI=4.
 Internal  Forces:  Max     0.001111332 RMS     0.000283999
 Search for a local minimum.
 Step number   3 out of a maximum of   57
 All quantities printed in internal units (Hartrees-Bohrs-Radians)
 Mixed Optimization -- En-DIIS/RFO-DIIS
 Update second derivatives using D2CorX and points    1    2    3
 DE= -2.87D-04 DEPred=-2.55D-04 R= 1.13D+00
 TightC=F SS=  1.41D+00  RLast= 4.59D-02 DXNew= 6.4268D-01 1.3773D-01
 Trust test= 1.13D+00 RLast= 4.59D-02 DXMaxT set to 3.82D-01
 ITU=  1  1  0
 Use linear search instead of GDIIS.
     Eigenvalues ---    0.01898   0.01949   0.02004   0.02020   0.02040
     Eigenvalues ---    0.02046   0.02154   0.02368   0.15887   0.16000
     Eigenvalues ---    0.16065   0.19234   0.22156   0.24188   0.25006
     Eigenvalues ---    0.25091   0.30585   0.33670   0.33925   0.35593
     Eigenvalues ---    0.37687   0.40140   0.43020   0.43943   0.44916
     Eigenvalues ---    0.49619   0.51687
 RFO step:  Lambda=-4.61982719D-06 EMin= 1.89834883D-02
 Quartic linear search produced a step of  0.16070.
 Iteration  1 RMS(Cart)=  0.00114423 RMS(Int)=  0.00000151
 Iteration  2 RMS(Cart)=  0.00000157 RMS(Int)=  0.00000116
 Iteration  3 RMS(Cart)=  0.00000000 RMS(Int)=  0.00000116
 ClnCor:  largest displacement from symmetrization is 4.50D-10 for atom    11.
 Variable       Old X    -DE/DX   Delta X   Delta X   Delta X     New X
                                 (Linear)    (Quad)   (Total)
    R1        2.58910   0.00018  -0.00014   0.00038   0.00024   2.58934
    R2        2.64570  -0.00064  -0.00167  -0.00067  -0.00234   2.64335
    R3        3.26473   0.00111   0.00427   0.00051   0.00478   3.26951
    R4        2.58655   0.00043   0.00090   0.00015   0.00105   2.58760
    R5        2.64197  -0.00017  -0.00030  -0.00038  -0.00068   2.64130
    R6        2.04528   0.00039   0.00016   0.00087   0.00102   2.04631
    R7        2.62469   0.00047   0.00054   0.00050   0.00104   2.62572
    R8        2.04592   0.00043  -0.00011   0.00123   0.00112   2.04704
    R9        2.63117   0.00045  -0.00027   0.00109   0.00083   2.63200
   R10        2.04401   0.00037  -0.00004   0.00089   0.00084   2.04485
   R11        3.27227   0.00039   0.00346  -0.00102   0.00244   3.27472
    A1        2.03462   0.00033   0.00185   0.00017   0.00203   2.03665
    A2        2.10951  -0.00057  -0.00180  -0.00123  -0.00304   2.10647
    A3        2.13906   0.00023  -0.00005   0.00106   0.00101   2.14007
    A4        2.20073  -0.00029  -0.00267   0.00030  -0.00237   2.19837
    A5        2.03124   0.00003   0.00124  -0.00054   0.00069   2.03193
    A6        2.12876   0.00004  -0.00054   0.00063   0.00009   2.12885
    A7        2.12319  -0.00008  -0.00069  -0.00009  -0.00079   2.12240
    A8        2.09933   0.00013   0.00021   0.00070   0.00091   2.10024
    A9        2.09678  -0.00023  -0.00026  -0.00136  -0.00162   2.09516
   A10        2.08707   0.00010   0.00005   0.00066   0.00071   2.08778
   A11        2.10806  -0.00030  -0.00119  -0.00056  -0.00176   2.10630
   A12        2.10616   0.00006   0.00125  -0.00072   0.00053   2.10668
   A13        2.06896   0.00024  -0.00005   0.00129   0.00123   2.07020
   A14        2.09238   0.00009   0.00056  -0.00007   0.00050   2.09288
   A15        2.10759   0.00009   0.00017   0.00027   0.00044   2.10803
   A16        2.08321  -0.00018  -0.00073  -0.00020  -0.00094   2.08227
    D1        0.00000  -0.00000   0.00000  -0.00000   0.00000   0.00000
    D2        3.14159  -0.00000   0.00000  -0.00000   0.00000   3.14159
    D3       -0.00000   0.00000   0.00000   0.00000   0.00000   0.00000
    D4        3.14159   0.00000   0.00000   0.00000   0.00000   3.14159
    D5        3.14159  -0.00000   0.00000   0.00000   0.00000   3.14159
    D6       -0.00000  -0.00000   0.00000   0.00000   0.00000   0.00000
    D7       -0.00000   0.00000   0.00000   0.00000   0.00000   0.00000
    D8        3.14159   0.00000   0.00000  -0.00000   0.00000   3.14159
    D9        0.00000   0.00000   0.00000   0.00000   0.00000   0.00000
   D10        3.14159  -0.00000   0.00000   0.00000   0.00000   3.14159
   D11        3.14159   0.00000   0.00000   0.00000   0.00000   3.14159
   D12       -0.00000   0.00000   0.00000   0.00000   0.00000   0.00000
   D13       -0.00000  -0.00000   0.00000  -0.00000   0.00000   0.00000
   D14        3.14159   0.00000   0.00000   0.00000   0.00000   3.14159
   D15        3.14159  -0.00000   0.00000  -0.00000   0.00000   3.14159
   D16        0.00000   0.00000   0.00000   0.00000   0.00000   0.00000
   D17       -0.00000   0.00000   0.00000  -0.00000   0.00000   0.00000
   D18        3.14159  -0.00000   0.00000  -0.00000   0.00000   3.14159
   D19        3.14159  -0.00000   0.00000  -0.00000   0.00000   3.14159
   D20        0.00000  -0.00000   0.00000  -0.00000  -0.00000   0.00000
         Item               Value     Threshold  Converged?
 Maximum Force            0.001111     0.000450     NO 
 RMS     Force            0.000284     0.000300     YES
 Maximum Displacement     0.004147     0.001800     NO 
 RMS     Displacement     0.001145     0.001200     YES
 Predicted change in Energy=-7.417147D-06
 GradGradGradGradGradGradGradGradGradGradGradGradGradGradGradGradGradGrad

                          Input orientation:                          
 ---------------------------------------------------------------------
 Center     Atomic      Atomic             Coordinates (Angstroms)
 Number     Number       Type             X           Y           Z
 ---------------------------------------------------------------------
      1          6           0       -3.105761    0.140644   -0.000000
      2          6           0       -1.900693    0.792799   -0.000000
      3          6           0       -0.666039    0.200681   -0.000000
      4          6           0       -0.646537   -1.196898   -0.000000
      5          6           0       -1.835865   -1.915325   -0.000000
      6          6           0       -3.063531   -1.257521   -0.000000
      7         17           0       -4.524863   -2.188903    0.000000
      8         17           0       -4.590543    1.028809    0.000000
      9          1           0        0.248206    0.780972   -0.000000
     10          1           0        0.298640   -1.726105   -0.000000
     11          1           0       -1.827734   -2.997383   -0.000000
 ---------------------------------------------------------------------
                    Distance matrix (angstroms):
                    1          2          3          4          5
     1  C    0.000000
     2  C    1.370217   0.000000
     3  C    2.440460   1.369297   0.000000
     4  C    2.799428   2.351978   1.397714   0.000000
[...]
      9        1           0.000016079   -0.000004582   -0.000000000
     10        1           0.000044020    0.000012022   -0.000000000
     11        1           0.000043444   -0.000010008   -0.000000000
 -------------------------------------------------------------------
 Cartesian Forces:  Max     0.000258903 RMS     0.000078798
 FormGI is forming the generalized inverse of G from B-inverse, IUseBI=4.

 GradGradGradGradGradGradGradGradGradGradGradGradGradGradGradGradGradGrad
 Berny optimization.
 Internal  Forces:  Max     0.000183875 RMS     0.000044418
 Search for a local minimum.
 Step number   1 out of a maximum of    2
 All quantities printed in internal units (Hartrees-Bohrs-Radians)
 Second derivative matrix not updated -- analytic derivatives used.
 ITU=  0
     Eigenvalues ---    0.01620   0.01802   0.01892   0.02389   0.02708
     Eigenvalues ---    0.02852   0.03371   0.03734   0.10522   0.11405
     Eigenvalues ---    0.11969   0.15167   0.17389   0.18169   0.18738
     Eigenvalues ---    0.20800   0.25280   0.28628   0.30411   0.36492
     Eigenvalues ---    0.36617   0.36946   0.43017   0.43874   0.48207
     Eigenvalues ---    0.49408   0.52753
 Angle between quadratic step and forces=  19.27 degrees.
 Linear search not attempted -- first point.
 Iteration  1 RMS(Cart)=  0.00026216 RMS(Int)=  0.00000006
 Iteration  2 RMS(Cart)=  0.00000007 RMS(Int)=  0.00000001
 ClnCor:  largest displacement from symmetrization is 3.91D-11 for atom    11.
 Variable       Old X    -DE/DX   Delta X   Delta X   Delta X     New X
                                 (Linear)    (Quad)   (Total)
    R1        2.58934   0.00006   0.00000   0.00019   0.00019   2.58953
    R2        2.64335  -0.00006   0.00000  -0.00029  -0.00029   2.64306
    R3        3.26951   0.00004   0.00000   0.00028   0.00028   3.26978
    R4        2.58760  -0.00002   0.00000  -0.00012  -0.00012   2.58748
    R5        2.64130   0.00010   0.00000   0.00037   0.00037   2.64167
    R6        2.04631   0.00001   0.00000   0.00001   0.00001   2.04631
    R7        2.62572  -0.00001   0.00000  -0.00017  -0.00017   2.62555
    R8        2.04704   0.00003   0.00000   0.00011   0.00011   2.04714
    R9        2.63200   0.00009   0.00000   0.00036   0.00036   2.63235
   R10        2.04485   0.00001   0.00000   0.00003   0.00003   2.04488
   R11        3.27472  -0.00018   0.00000  -0.00085  -0.00085   3.27387
    A1        2.03665   0.00006   0.00000   0.00045   0.00045   2.03710
    A2        2.10647  -0.00010   0.00000  -0.00065  -0.00065   2.10582
    A3        2.14007   0.00004   0.00000   0.00019   0.00019   2.14026
    A4        2.19837   0.00000   0.00000  -0.00005  -0.00005   2.19832
    A5        2.03193  -0.00006   0.00000  -0.00036  -0.00036   2.03157
    A6        2.12885   0.00005   0.00000   0.00043   0.00043   2.12929
    A7        2.12240   0.00001   0.00000  -0.00007  -0.00007   2.12233
    A8        2.10024   0.00005   0.00000   0.00035   0.00035   2.10059
    A9        2.09516  -0.00005   0.00000  -0.00045  -0.00045   2.09471
   A10        2.08778   0.00000   0.00000   0.00010   0.00010   2.08788
   A11        2.10630  -0.00002   0.00000  -0.00003  -0.00003   2.10627
   A12        2.10668  -0.00003   0.00000  -0.00031  -0.00031   2.10637
   A13        2.07020   0.00005   0.00000   0.00034   0.00034   2.07054
   A14        2.09288  -0.00003   0.00000  -0.00036  -0.00036   2.09252
   A15        2.10803   0.00002   0.00000   0.00019   0.00019   2.10823
   A16        2.08227   0.00001   0.00000   0.00016   0.00016   2.08244
    D1        0.00000  -0.00000   0.00000   0.00000  -0.00000   0.00000
    D2        3.14159  -0.00000   0.00000   0.00000   0.00000   3.14159
    D3       -0.00000   0.00000   0.00000  -0.00000   0.00000   0.00000
    D4        3.14159  -0.00000   0.00000  -0.00000   0.00000   3.14159
    D5        3.14159  -0.00000   0.00000  -0.00000   0.00000   3.14159
    D6        0.00000  -0.00000   0.00000  -0.00000  -0.00000   0.00000
    D7       -0.00000   0.00000   0.00000   0.00000   0.00000   0.00000
    D8        3.14159   0.00000   0.00000   0.00000   0.00000   3.14159
    D9        0.00000   0.00000   0.00000  -0.00000   0.00000   0.00000
   D10        3.14159   0.00000   0.00000  -0.00000   0.00000   3.14159
   D11        3.14159   0.00000   0.00000  -0.00000   0.00000   3.14159
   D12       -0.00000   0.00000   0.00000  -0.00000   0.00000   0.00000
   D13        0.00000  -0.00000   0.00000   0.00000   0.00000   0.00000
   D14        3.14159  -0.00000   0.00000   0.00000   0.00000   3.14159
   D15        3.14159  -0.00000   0.00000   0.00000   0.00000   3.14159
   D16        0.00000  -0.00000   0.00000   0.00000  -0.00000   0.00000
   D17       -0.00000   0.00000   0.00000  -0.00000   0.00000   0.00000
   D18        3.14159   0.00000   0.00000   0.00000   0.00000   3.14159
   D19        3.14159   0.00000   0.00000  -0.00000   0.00000   3.14159
   D20        0.00000   0.00000   0.00000  -0.00000   0.00000   0.00000
         Item               Value     Threshold  Converged?
 Maximum Force            0.000184     0.000450     YES
 RMS     Force            0.000044     0.000300     YES
 Maximum Displacement     0.000805     0.001800     YES
 RMS     Displacement     0.000262     0.001200     YES
 Predicted change in Energy=-2.476842D-07
 Optimization completed.
    -- Stationary point found.
                           ----------------------------
                           !   Optimized Parameters   !
                           ! (Angstroms and Degrees)  !
 --------------------------                            --------------------------
 ! Name  Definition              Value          Derivative Info.                !
 --------------------------------------------------------------------------------
 ! R1    R(1,2)                  1.3702         -DE/DX =    0.0001              !
 ! R2    R(1,6)                  1.3988         -DE/DX =   -0.0001              !
 ! R3    R(1,8)                  1.7301         -DE/DX =    0.0                 !
 ! R4    R(2,3)                  1.3693         -DE/DX =    0.0                 !
 ! R5    R(3,4)                  1.3977         -DE/DX =    0.0001              !
 ! R6    R(3,9)                  1.0829         -DE/DX =    0.0                 !
 ! R7    R(4,5)                  1.3895         -DE/DX =    0.0                 !
 ! R8    R(4,10)                 1.0832         -DE/DX =    0.0                 !
 ! R9    R(5,6)                  1.3928         -DE/DX =    0.0001              !
 ! R10   R(5,11)                 1.0821         -DE/DX =    0.0                 !
 ! R11   R(6,7)                  1.7329         -DE/DX =   -0.0002              !
 ! A1    A(2,1,6)              116.6912         -DE/DX =    0.0001              !
 ! A2    A(2,1,8)              120.6918         -DE/DX =   -0.0001              !
 ! A3    A(6,1,8)              122.617          -DE/DX =    0.0                 !
 ! A4    A(1,2,3)              125.9572         -DE/DX =    0.0                 !
 ! A5    A(2,3,4)              116.421          -DE/DX =   -0.0001              !
 ! A6    A(2,3,9)              121.9742         -DE/DX =    0.0                 !
 ! A7    A(4,3,9)              121.6048         -DE/DX =    0.0                 !
 ! A8    A(3,4,5)              120.3351         -DE/DX =    0.0001              !
 ! A9    A(3,4,10)             120.0441         -DE/DX =   -0.0001              !
 ! A10   A(5,4,10)             119.6208         -DE/DX =    0.0                 !
 ! A11   A(4,5,6)              120.6823         -DE/DX =    0.0                 !
 ! A12   A(4,5,11)             120.7041         -DE/DX =    0.0                 !
 ! A13   A(6,5,11)             118.6136         -DE/DX =    0.0001              !
 ! A14   A(1,6,5)              119.9131         -DE/DX =    0.0                 !
 ! A15   A(1,6,7)              120.7815         -DE/DX =    0.0                 !
 ! A16   A(5,6,7)              119.3054         -DE/DX =    0.0                 !
 ! D1    D(6,1,2,3)              0.0            -DE/DX =    0.0                 !
 ! D2    D(8,1,2,3)            180.0            -DE/DX =    0.0                 !
 ! D3    D(2,1,6,5)              0.0            -DE/DX =    0.0                 !
 ! D4    D(2,1,6,7)            180.0            -DE/DX =    0.0                 !
 ! D5    D(8,1,6,5)            180.0            -DE/DX =    0.0                 !
 ! D6    D(8,1,6,7)              0.0            -DE/DX =    0.0                 !
 ! D7    D(1,2,3,4)              0.0            -DE/DX =    0.0                 !
 ! D8    D(1,2,3,9)            180.0            -DE/DX =    0.0                 !
 ! D9    D(2,3,4,5)              0.0            -DE/DX =    0.0                 !
 ! D10   D(2,3,4,10)           180.0            -DE/DX =    0.0                 !
 ! D11   D(9,3,4,5)            180.0            -DE/DX =    0.0                 !
 ! D12   D(9,3,4,10)             0.0            -DE/DX =    0.0                 !
 ! D13   D(3,4,5,6)              0.0            -DE/DX =    0.0                 !
 ! D14   D(3,4,5,11)           180.0            -DE/DX =    0.0                 !
 ! D15   D(10,4,5,6)           180.0            -DE/DX =    0.0                 !
 ! D16   D(10,4,5,11)            0.0            -DE/DX =    0.0                 !
 ! D17   D(4,5,6,1)              0.0            -DE/DX =    0.0                 !
 ! D18   D(4,5,6,7)            180.0            -DE/DX =    0.0                 !
 ! D19   D(11,5,6,1)           180.0            -DE/DX =    0.0                 !
 ! D20   D(11,5,6,7)             0.0            -DE/DX =    0.0                 !
 --------------------------------------------------------------------------------
 GradGradGradGradGradGradGradGradGradGradGradGradGradGradGradGradGradGrad


 ----------------------------------------------------------------------

 Electric dipole moment (input orientation):
 (Debye = 10**-18 statcoulomb cm , SI units = C m)
                  (au)            (Debye)         (10**-30 SI)
   Tot        0.107088D+01      0.272191D+01      0.907930D+01
   x          0.102845D+01      0.261407D+01      0.871959D+01
   y         -0.298444D+00     -0.758569D+00     -0.253031D+01
   z          0.000000D+00      0.000000D+00      0.000000D+00

 Dipole polarizability, Alpha (input orientation).
 (esu units = cm**3 , SI units = C**2 m**2 J**-1)
 Alpha(0;0):
               (au)            (10**-24 esu)      (10**-40 SI)
   iso        0.879812D+02      0.130375D+02      0.145061D+02
   aniso      0.593415D+02      0.879350D+01      0.978409D+01
   xx         0.117319D+03      0.173849D+02      0.193433D+02
   yx         0.193267D+00      0.286391D-01      0.318653D-01
   yy         0.962956D+02      0.142695D+02      0.158770D+02
   zx         0.000000D+00      0.000000D+00      0.000000D+00
   zy         0.000000D+00      0.000000D+00      0.000000D+00
   zz         0.503290D+02      0.745799D+01      0.829813D+01

 ----------------------------------------------------------------------

 Dipole orientation:
     6         -0.38470265         -1.32570531         -5.71058188
     6          0.12201632          0.42047457         -3.86701243
     6          0.00374509          0.01290576         -1.31445383
     6         -0.70026386         -2.41314561         -0.54302842
     6         -1.23819163         -4.26687263         -2.32312962
     6         -1.08567230         -3.74128309         -4.89760086
    17         -1.77123198         -6.10375733         -7.05919692
    17         -0.15340779         -0.52865121         -8.87300068
     1          0.43143217          1.48673766          0.03916020
     1         -0.82920271         -2.85747556          1.45103930
     1         -1.78428520         -6.14873942         -1.73850984

 Electric dipole moment (dipole orientation):
 (Debye = 10**-18 statcoulomb cm , SI units = C m)
                  (au)            (Debye)         (10**-30 SI)
   Tot        0.107088D+01      0.272191D+01      0.907930D+01
   x          0.000000D+00      0.000000D+00      0.000000D+00
   y          0.000000D+00      0.000000D+00      0.000000D+00
   z          0.107088D+01      0.272191D+01      0.907930D+01

 Dipole polarizability, Alpha (dipole orientation).
 (esu units = cm**3 , SI units = C**2 m**2 J**-1)
 Alpha(0;0):
               (au)            (10**-24 esu)      (10**-40 SI)
   iso        0.879812D+02      0.130375D+02      0.145061D+02
   aniso      0.593415D+02      0.879350D+01      0.978409D+01
   xx         0.540340D+02      0.800701D+01      0.890900D+01
   yx         0.127676D+02      0.189197D+01      0.210510D+01
   yy         0.943269D+02      0.139778D+02      0.155524D+02
   zx         0.161366D+01      0.239120D+00      0.266057D+00
   zy         0.556076D+01      0.824020D+00      0.916846D+00
   zz         0.115583D+03      0.171276D+02      0.190570D+02

 ----------------------------------------------------------------------
 1\1\GINC-SH02-01N31\Freq\UM062X\6-311++G(d,p)\C6H3Cl2(2)\JLAPIER\10-De
 c-2025\0\\#N Geom=AllCheck Guess=TCheck SCRF=Check GenChk UM062X/6-311
 ++G(d,p) Freq\\Neutral Radical (removed 3) 12_\\0,2\C,-3.1057607551,0.
 1406437383,0.\C,-1.9006929476,0.7927991168,0.\C,-0.6660390832,0.200680
 5181,0.\C,-0.6465371055,-1.1968977163,0.\C,-1.8358645897,-1.9153246708
 ,0.\C,-3.0635314021,-1.2575205891,0.\Cl,-4.5248625017,-2.188903443,0.\
 Cl,-4.5905432146,1.0288091391,0.\H,0.2482057496,0.7809724786,0.\H,0.29
 86400646,-1.7261051837,0.\H,-1.8277342148,-2.9973833881,0.\\Version=ES
 64L-G16RevB.01\State=2-A'\HF=-1150.7085305\S2=0.762668\S2-1=0.\S2A=0.7
 50074\RMSD=9.358e-09\RMSF=7.880e-05\ZeroPoint=0.0691762\Thermal=0.0757
 667\Dipole=1.0284532,-0.2984439,0.\DipoleDeriv=0.6558814,-0.6319211,0.
 ,-0.4912018,0.1809838,0.,0.,0.,0.0288931,-0.10093,0.1202331,0.,-0.0403
 851,-0.1099503,0.,0.,0.,-0.0606523,-0.0238945,0.0164575,0.,0.0308141,-
 0.0747191,0.,0.,0.,-0.0841033,0.0425119,0.0110374,0.,0.0478349,0.08645
 21,0.,0.,0.,-0.1391024,-0.2694645,-0.1127699,0.,-0.038326,-0.0339511,0
 .,0.,0.,-0.1190532,0.6823717,0.6166967,0.,0.5187472,0.3601878,0.,0.,0.
 ,-0.0097634,-0.5299771,-0.3413268,0.,-0.3527509,-0.2896592,0.,0.,0.,-0
 .042655,-0.5311607,0.3315341,0.,0.3085107,-0.2309303,0.,0.,0.,-0.02642
 05,0.0209343,-0.0391042,0.,-0.0340668,0.0726919,0.,0.,0.,0.1610955,-0.
 0173175,0.0348452,0.,0.0526327,0.0386826,0.,0.,0.,0.1423117,0.071045,-
 0.005682,0.,-0.0018087,0.0002118,0.,0.,0.,0.1494499\Polar=117.3191153,
 0.1932665,96.2956014,0.,0.,50.3289836\Quadrupole=3.7574594,-0.2752899,
 -3.4821694,-0.6623214,0.,0.\PG=CS [SG(C6H3Cl2)]\NImag=0\\0.58964968,0.
 04016216,0.56360182,0.,0.,0.11689721,-0.28993843,-0.09863390,0.,0.6924
 2609,-0.12588751,-0.15116706,0.,-0.00243606,0.34106396,0.,0.,-0.055708
 95,0.,0.,0.07439055,-0.05832222,-0.02694015,0.,-0.32075824,0.11976593,
 0.,0.74013927,0.01889120,0.06997867,0.,0.07989835,-0.14059376,0.,0.045
 84042,0.63120726,0.,0.,0.00548551,0.,0.,-0.05114665,0.,0.,0.12347437,-
 0.01710455,-0.03837154,0.,0.02759674,0.03236374,0.,-0.12067895,0.04369
 384,0.,0.73044250,-0.03739000,-0.06200742,0.,0.10205321,-0.02633145,0.
 ,-0.04379517,-0.32334124,0.,-0.03432109,0.67233407,0.,0.,-0.00230491,0
 .,0.,0.01311738,0.,0.,-0.06086311,0.,0.,0.13005059,0.03831498,0.088184
 83,0.,-0.08395745,-0.00204448,0.,0.04245741,-0.08236509,0.,-0.28867841
 ,-0.05765288,0.,0.66879823,0.02266648,-0.02222937,0.,-0.00244437,-0.00
 521360,0.,-0.02423065,-0.02956125,0.,-0.13489086,-0.18738985,0.,0.0133
 0997,0.75959537,0.,0.,0.00860924,0.,0.,-0.00516614,0.,0.,0.00671858,0.
 ,0.,-0.06038851,0.,0.,0.13033186,-0.09636426,-0.03454912,0.,0.03708311
 ,-0.02257680,0.,-0.02051324,0.04095106,0.,-0.06334238,-0.03657523,0.,-
 0.26655960,0.13261543,0.,0.56710049,0.05235794,-0.30163581,0.,-0.09794
 500,-0.02721596,0.,0.03819361,-0.06010439,0.,0.03001590,0.07298975,0.,
 0.05439607,-0.17149911,0.,-0.04610098,0.59718805,0.,0.,-0.06640533,0.,
 0.,0.01448363,0.,0.,-0.00284807,0.,0.,0.00427453,0.,0.,-0.06259044,0.,
 0.,0.12151675,-0.01610101,-0.00820032,0.,0.00061705,-0.00220802,0.,-0.
 00112150,-0.00211831,0.,0.00039587,0.00681647,0.,-0.04055407,-0.025474
 39,0.,-0.14029433,-0.06528171,0.,0.19431346,-0.03387968,-0.02073024,0.
 ,0.00247616,-0.00562197,0.,-0.00091926,0.00093575,0.,0.00134387,0.0002
 0711,0.,-0.00007853,0.00444787,0.,-0.06252806,-0.07842861,0.,0.0952193
 4,0.10336460,0.,0.,0.00427906,0.,0.,0.00397070,0.,0.,-0.00084990,0.,0.
 ,0.00474504,0.,0.,0.00453036,0.,0.,-0.02292400,0.,0.,0.01073783,-0.143
 51833,0.07655642,0.,-0.04254386,0.01422663,0.,0.00005690,-0.00385200,0
 .,-0.00124870,0.00203738,0.,0.00195328,0.00090251,0.,-0.01620771,0.007
 93316,0.,0.00327213,-0.00262020,0.,0.19938139,0.05903845,-0.07535133,0
 .,0.00459972,0.00888687,0.,-0.00287500,-0.00092128,0.,0.00145817,-0.00
 042821,0.,-0.00393067,-0.00417806,0.,0.03350479,-0.01841391,0.,0.00307
 595,-0.00528845,0.,-0.09627025,0.09570769,0.,0.,-0.02143530,0.,0.,0.00
 164878,0.,0.,0.00393284,0.,0.,-0.00022285,0.,0.,0.00370660,0.,0.,0.004
 95186,0.,0.,-0.00134736,0.,0.,0.00940804,-0.00293313,0.00098832,0.,-0.
 02059496,-0.01149125,0.,-0.26086869,-0.13461869,0.,0.00520629,0.002903
 44,0.,0.00183086,0.00082071,0.,-0.00021309,0.00126504,0.,0.00011261,-0
 .00006258,0.,-0.00058128,-0.00011528,0.,0.27754549,0.00378790,-0.00043
 599,0.,0.01082026,0.01119226,0.,-0.12924062,-0.13746750,0.,-0.02760912
 ,-0.01008312,0.,0.00105298,-0.00530978,0.,0.00087856,-0.00112668,0.,-0
 .00013331,0.00010653,0.,0.00072846,0.00015984,0.,0.14047244,0.14220904
 ,0.,0.,0.00614984,0.,0.,-0.00129423,0.,0.,-0.03471036,0.,0.,0.00524466
 ,0.,0.,0.00660853,0.,0.,-0.00025830,0.,0.,-0.00051274,0.,0.,-0.0002815
 7,0.,0.,0.02302202,-0.00005728,-0.00090587,0.,0.00183375,0.00016711,0.
 ,0.00357915,-0.00321080,0.,-0.27796842,0.12259362,0.,-0.01739902,0.014
 78990,0.,-0.00202958,-0.00280472,0.,-0.00111312,0.00012049,0.,0.000088
 14,0.00003702,0.,0.00036349,0.00048291,0.,0.29198117,-0.00174120,-0.00
 041733,0.,0.00163653,-0.00591167,0.,0.02680892,-0.01058214,0.,0.123716
 87,-0.12637720,0.,-0.01582139,0.01139790,0.,-0.00279006,-0.00051949,0.
 ,-0.00094864,0.00013605,0.,0.00018475,0.00008309,0.,-0.00035529,0.0012
 2009,0.,-0.13111680,0.13038015,0.,0.,-0.00114874,0.,0.,0.00667912,0.,0
 .,0.00411753,0.,0.,-0.03688758,0.,0.,0.00307696,0.,0.,0.00725806,0.,0.
 ,0.00007674,0.,0.,-0.00039837,0.,0.,-0.00397832,0.,0.,0.02538007,-0.00
 362545,0.00170917,0.,-0.00176377,0.00012070,0.,-0.00396989,-0.00310997
 ,0.,0.00537999,-0.02666976,0.,-0.05620620,0.00193526,0.,0.00134058,0.0
 2797069,0.,0.00047291,0.00092845,0.,-0.00065195,0.00147710,0.,0.000132
 42,-0.00124045,0.,0.00072173,0.00042631,0.,0.05816964,0.00199425,0.000
 39405,0.,-0.00002491,0.00091238,0.,-0.00260802,0.00044987,0.,0.0026002
 3,-0.00957245,0.,0.00494918,-0.35006012,0.,-0.00282959,-0.01123384,0.,
 -0.00074706,0.00087137,0.,0.00017314,-0.00025624,0.,0.00019313,-0.0004
 6470,0.,-0.00015285,0.00059053,0.,-0.00354750,0.36836915,0.,0.,0.00558
 239,0.,0.,-0.00097420,0.,0.,0.00668925,0.,0.,0.00323475,0.,0.,-0.03543
 704,0.,0.,0.00254131,0.,0.,-0.00270573,0.,0.,0.00003732,0.,0.,0.000010
 46,0.,0.,-0.00417548,0.,0.,0.02519696\\-0.00001529,0.00019217,0.,-0.00
 001739,-0.00003522,0.,-0.00004994,-0.00015456,0.,0.00012580,0.00010440
 ,0.,-0.00005559,0.00004447,0.,0.00025890,-0.00000816,0.,-0.00015751,-0
 .00009454,0.,0.00001456,-0.00005113,0.,-0.00001608,0.00000458,0.,-0.00
 004402,-0.00001202,0.,-0.00004344,0.00001001,0.\\\@


 THEORY:  SUPPOSITION WHICH HAS SCIENTIFIC BASIS,
          BUT NOT EXPERIMENTALLY PROVEN.
 FACT:    A THEORY WHICH HAS BEEN PROVEN BY ENOUGH 
          MONEY TO PAY FOR THE EXPERIMENTS.

                          --  THE WIZARD OF ID
 Job cpu time:       0 days  0 hours 37 minutes 25.7 seconds.
 Elapsed time:       0 days  0 hours  9 minutes 22.9 seconds.
 File lengths (MBytes):  RWF=    142 Int=      0 D2E=      0 Chk=     34 Scr=      1
 Normal termination of Gaussian 16 at Wed Dec 10 11:08:33 2025.
