 Entering Gaussian System, Link 0=g16
 Initial command:
 /share/software/user/restricted/gaussian/g16.B01/l1.exe "/home/users/jlapier/Chloroaromatics/Gau-638.inp" -scrdir="/home/users/jlapier/Chloroaromatics/"
 Entering Link 1 = /share/software/user/restricted/gaussian/g16.B01/l1.exe PID=       639.
  
 Copyright (c) 1988-2017, Gaussian, Inc.  All Rights Reserved.
  
 This is part of the Gaussian(R) 16 program.  It is based on
 the Gaussian(R) 09 system (copyright 2009, Gaussian, Inc.),
 the Gaussian(R) 03 system (copyright 2003, Gaussian, Inc.),
 the Gaussian(R) 98 system (copyright 1998, Gaussian, Inc.),
 the Gaussian(R) 94 system (copyright 1995, Gaussian, Inc.),
 the Gaussian 92(TM) system (copyright 1992, Gaussian, Inc.),
 the Gaussian 90(TM) system (copyright 1990, Gaussian, Inc.),
 the Gaussian 88(TM) system (copyright 1988, Gaussian, Inc.),
 the Gaussian 86(TM) system (copyright 1986, Carnegie Mellon
 University), and the Gaussian 82(TM) system (copyright 1983,
 Carnegie Mellon University). Gaussian is a federally registered
 trademark of Gaussian, Inc.
  
 This software contains proprietary and confidential information,
 including trade secrets, belonging to Gaussian, Inc.
  
 This software is provided under written license and may be
 used, copied, transmitted, or stored only in accord with that
 written license.
  
 The following legend is applicable only to US Government
 contracts under FAR:
  
                    RESTRICTED RIGHTS LEGEND
  
 Use, reproduction and disclosure by the US Government is
 subject to restrictions as set forth in subparagraphs (a)
 and (c) of the Commercial Computer Software - Restricted
 Rights clause in FAR 52.227-19.
  
 Gaussian, Inc.
 340 Quinnipiac St., Bldg. 40, Wallingford CT 06492
  
  
 ---------------------------------------------------------------
 Warning -- This program may not be used in any manner that
 competes with the business of Gaussian, Inc. or will provide
 assistance to any competitor of Gaussian, Inc.  The licensee
 of this program is prohibited from giving any competitor of
 Gaussian, Inc. access to this program.  By using this program,
 the user acknowledges that Gaussian, Inc. is engaged in the
 business of creating and licensing software in the field of
 computational chemistry and represents and warrants to the
 licensee that it is not a competitor of Gaussian, Inc. and that
 it will not use this program in any manner prohibited above.
 ---------------------------------------------------------------
  

 Cite this work as:
 Gaussian 16, Revision B.01,
 M. J. Frisch, G. W. Trucks, H. B. Schlegel, G. E. Scuseria, 
 M. A. Robb, J. R. Cheeseman, G. Scalmani, V. Barone, 
 G. A. Petersson, H. Nakatsuji, X. Li, M. Caricato, A. V. Marenich, 
 J. Bloino, B. G. Janesko, R. Gomperts, B. Mennucci, H. P. Hratchian, 
 J. V. Ortiz, A. F. Izmaylov, J. L. Sonnenberg, D. Williams-Young, 
 F. Ding, F. Lipparini, F. Egidi, J. Goings, B. Peng, A. Petrone, 
 T. Henderson, D. Ranasinghe, V. G. Zakrzewski, J. Gao, N. Rega, 
 G. Zheng, W. Liang, M. Hada, M. Ehara, K. Toyota, R. Fukuda, 
 J. Hasegawa, M. Ishida, T. Nakajima, Y. Honda, O. Kitao, H. Nakai, 
 T. Vreven, K. Throssell, J. A. Montgomery, Jr., J. E. Peralta, 
 F. Ogliaro, M. J. Bearpark, J. J. Heyd, E. N. Brothers, K. N. Kudin, 
 V. N. Staroverov, T. A. Keith, R. Kobayashi, J. Normand, 
 K. Raghavachari, A. P. Rendell, J. C. Burant, S. S. Iyengar, 
 J. Tomasi, M. Cossi, J. M. Millam, M. Klene, C. Adamo, R. Cammi, 
 J. W. Ochterski, R. L. Martin, K. Morokuma, O. Farkas, 
 J. B. Foresman, and D. J. Fox, Gaussian, Inc., Wallingford CT, 2016.
 
 ******************************************
 Gaussian 16:  ES64L-G16RevB.01 20-Dec-2017
                10-Dec-2025 
 ******************************************
 %mem=8GB
 %nprocshare=4
 Will use up to    4 processors via shared memory.
 %oldchk=geometry_chks/123-_23-ClBzNeutralRadical.chk
 %chk=frequency_chks/123-_23-ClBzNeutralRadical_Freq.chk
 Copying data from "geometry_chks/123-_23-ClBzNeutralRadical.chk" to current chk file "frequency_chks/123-_23-ClBzNeutralRadical_Freq.chk"
 IOpt=  2 FromEx=T IUOpen= 4 IOptOp= 5 NList=   0 IFRang= 0 IUIn= 4 IUOut= 2.
 -------------------------------------------------------
 # opt freq 6-311++g(d,p) guess=read geom=allcheck m062x
 -------------------------------------------------------
 1/18=20,19=15,26=3,29=7,38=1/1,3;
 2/9=110,12=2,40=1/2;
 3/5=4,6=6,7=1111,11=2,14=-4,25=1,30=1,71=1,74=-55,116=-2/1,2,3;
 4/5=1/1;
 5/5=2,38=6/2;
 6/7=2,8=2,9=2,10=2,28=1/1;
 7//1,2,3,16;
 1/18=20,19=15,26=3/3(2);
 2/9=110/2;
 99//99;
 2/9=110/2;
 3/5=4,6=6,7=1111,11=2,14=-2,25=1,30=1,71=1,74=-55/1,2,3;
 4/5=5,16=3,69=1/1;
 5/5=2,38=5/2;
 7//1,2,3,16;
 1/18=20,19=15,26=3/3(-5);
 2/9=110/2;
 6/7=2,8=2,9=2,10=2,19=2,28=1/1;
 99/9=1/99;
 Structure from the checkpoint file:  "frequency_chks/123-_23-ClBzNeutralRadical_Freq.chk"
 -------------------------------
 Neutral Radical (removed 1) _23
 -------------------------------
 Charge =  0 Multiplicity = 2
 Redundant internal coordinates found in file.  (old form).
 C,0,-3.1342690714,0.1639741801,0.
 C,0,-1.9211877537,0.9009908083,0.
 C,0,-0.6915566242,0.2148872857,0.
 C,0,-0.6338935587,-1.1845445577,0.
 C,0,-1.8226869867,-1.9414346229,0.
 C,0,-2.9750191358,-1.2031239546,0.
 Cl,0,-4.6501579718,0.8888207117,0.
 Cl,0,-1.9353391184,2.5907549883,0.
 H,0,0.2451812795,0.7940190053,0.
 H,0,0.3400604445,-1.6934949587,0.
 H,0,-1.8210015032,-3.0383288854,0.
 Recover connectivity data from disk.

 GradGradGradGradGradGradGradGradGradGradGradGradGradGradGradGradGradGrad
 Berny optimization.
 Initialization pass.
                           ----------------------------
                           !    Initial Parameters    !
                           ! (Angstroms and Degrees)  !
 --------------------------                            --------------------------
 ! Name  Definition              Value          Derivative Info.                !
 --------------------------------------------------------------------------------
 ! R1    R(1,2)                  1.4194         estimate D2E/DX2                !
 ! R2    R(1,6)                  1.3763         estimate D2E/DX2                !
 ! R3    R(1,7)                  1.6803         estimate D2E/DX2                !
 ! R4    R(2,3)                  1.4081         estimate D2E/DX2                !
 ! R5    R(2,8)                  1.6898         estimate D2E/DX2                !
 ! R6    R(3,4)                  1.4006         estimate D2E/DX2                !
 ! R7    R(3,9)                  1.1013         estimate D2E/DX2                !
 ! R8    R(4,5)                  1.4093         estimate D2E/DX2                !
 ! R9    R(4,10)                 1.0989         estimate D2E/DX2                !
 ! R10   R(5,6)                  1.3686         estimate D2E/DX2                !
 ! R11   R(5,11)                 1.0969         estimate D2E/DX2                !
 ! A1    A(2,1,6)              114.6368         estimate D2E/DX2                !
 ! A2    A(2,1,7)              123.1634         estimate D2E/DX2                !
 ! A3    A(6,1,7)              122.1998         estimate D2E/DX2                !
 ! A4    A(1,2,3)              119.5585         estimate D2E/DX2                !
 ! A5    A(1,2,8)              120.8013         estimate D2E/DX2                !
 ! A6    A(3,2,8)              119.6403         estimate D2E/DX2                !
 ! A7    A(2,3,4)              121.5199         estimate D2E/DX2                !
 ! A8    A(2,3,9)              119.1134         estimate D2E/DX2                !
 ! A9    A(4,3,9)              119.3666         estimate D2E/DX2                !
 ! A10   A(3,4,5)              120.1249         estimate D2E/DX2                !
 ! A11   A(3,4,10)             119.9493         estimate D2E/DX2                !
 ! A12   A(5,4,10)             119.9258         estimate D2E/DX2                !
 ! A13   A(4,5,6)              114.8675         estimate D2E/DX2                !
 ! A14   A(4,5,11)             122.3964         estimate D2E/DX2                !
 ! A15   A(6,5,11)             122.7361         estimate D2E/DX2                !
 ! A16   A(1,6,5)              129.2924         estimate D2E/DX2                !
 ! D1    D(6,1,2,3)              0.0            estimate D2E/DX2                !
 ! D2    D(6,1,2,8)            180.0            estimate D2E/DX2                !
 ! D3    D(7,1,2,3)            180.0            estimate D2E/DX2                !
 ! D4    D(7,1,2,8)              0.0            estimate D2E/DX2                !
 ! D5    D(2,1,6,5)              0.0            estimate D2E/DX2                !
 ! D6    D(7,1,6,5)            180.0            estimate D2E/DX2                !
 ! D7    D(1,2,3,4)              0.0            estimate D2E/DX2                !
 ! D8    D(1,2,3,9)            180.0            estimate D2E/DX2                !
 ! D9    D(8,2,3,4)            180.0            estimate D2E/DX2                !
 ! D10   D(8,2,3,9)              0.0            estimate D2E/DX2                !
 ! D11   D(2,3,4,5)              0.0            estimate D2E/DX2                !
 ! D12   D(2,3,4,10)           180.0            estimate D2E/DX2                !
 ! D13   D(9,3,4,5)            180.0            estimate D2E/DX2                !
 ! D14   D(9,3,4,10)             0.0            estimate D2E/DX2                !
 ! D15   D(3,4,5,6)              0.0            estimate D2E/DX2                !
 ! D16   D(3,4,5,11)           180.0            estimate D2E/DX2                !
 ! D17   D(10,4,5,6)           180.0            estimate D2E/DX2                !
 ! D18   D(10,4,5,11)            0.0            estimate D2E/DX2                !
 ! D19   D(4,5,6,1)              0.0            estimate D2E/DX2                !
 ! D20   D(11,5,6,1)           180.0            estimate D2E/DX2                !
 --------------------------------------------------------------------------------
 Trust Radius=3.00D-01 FncErr=1.00D-07 GrdErr=1.00D-06 EigMax=2.50D+02 EigMin=1.00D-04
 Number of steps in this run=     57 maximum allowed number of steps=    100.
 GradGradGradGradGradGradGradGradGradGradGradGradGradGradGradGradGradGrad

                          Input orientation:                          
 ---------------------------------------------------------------------
 Center     Atomic      Atomic             Coordinates (Angstroms)
 Number     Number       Type             X           Y           Z
 ---------------------------------------------------------------------
      1          6           0       -3.134269    0.163974    0.000000
      2          6           0       -1.921188    0.900991    0.000000
      3          6           0       -0.691557    0.214887    0.000000
      4          6           0       -0.633894   -1.184545    0.000000
      5          6           0       -1.822687   -1.941435    0.000000
      6          6           0       -2.975019   -1.203124    0.000000
      7         17           0       -4.650158    0.888821    0.000000
      8         17           0       -1.935339    2.590755    0.000000
      9          1           0        0.245181    0.794019    0.000000
     10          1           0        0.340060   -1.693495    0.000000
     11          1           0       -1.821002   -3.038329    0.000000
 ---------------------------------------------------------------------
                    Distance matrix (angstroms):
                    1          2          3          4          5
     1  C    0.000000
     2  C    1.419422   0.000000
     3  C    2.443243   1.408095   0.000000
     4  C    2.840842   2.450833   1.400619   0.000000
     5  C    2.480523   2.844132   2.434991   1.409295   0.000000
     6  C    1.376342   2.353266   2.687928   2.341199   1.368566
     7  Cl   1.680274   2.728997   4.015559   4.519870   4.000617
     8  Cl   2.706787   1.689823   2.681742   3.993325   4.533589
     9  H    3.437680   2.169008   1.101304   2.165060   3.429109
    10  H    3.939690   3.441598   2.169368   1.098916   2.176913
    11  H    3.461129   3.940593   3.443699   2.201305   1.096896
                    6          7          8          9         10
     6  C    0.000000
     7  Cl   2.679986   0.000000
     8  Cl   3.933758   3.204188   0.000000
     9  H    3.789231   4.896257   2.825408   0.000000
    10  H    3.351151   5.618775   4.851004   2.489323   0.000000
    11  H    2.167887   4.840106   5.630245   4.353849   2.545342
                   11
    11  H    0.000000
 Stoichiometry    C6H3Cl2(2)
 Framework group  CS[SG(C6H3Cl2)]
 Deg. of freedom    19
 Full point group                 CS      NOp   2
 Largest Abelian subgroup         CS      NOp   2
 Largest concise Abelian subgroup C1      NOp   1
                         Standard orientation:                         
 ---------------------------------------------------------------------
 Center     Atomic      Atomic             Coordinates (Angstroms)
 Number     Number       Type             X           Y           Z
 ---------------------------------------------------------------------
      1          6           0       -0.111687   -0.739244    0.000000
      2          6           0        0.000000    0.675777    0.000000
      3          6           0        1.275694    1.271877    0.000000
      4          6           0        2.444533    0.500158    0.000000
      5          6           0        2.363171   -0.906786    0.000000
      6          6           0        1.090340   -1.409652    0.000000
      7         17           0       -1.586232   -1.544875    0.000000
      8         17           0       -1.378886    1.652598    0.000000
      9          1           0        1.353820    2.370407    0.000000
     10          1           0        3.426995    0.992484    0.000000
     11          1           0        3.253874   -1.546964    0.000000
 ---------------------------------------------------------------------
 Rotational constants (GHZ):           1.9730042           1.4410168           0.8327811
 Standard basis: 6-311++G(d,p) (5D, 7F)
 There are   166 symmetry adapted cartesian basis functions of A'  symmetry.
 There are    55 symmetry adapted cartesian basis functions of A"  symmetry.
 There are   158 symmetry adapted basis functions of A'  symmetry.
 There are    55 symmetry adapted basis functions of A"  symmetry.
   213 basis functions,   349 primitive gaussians,   221 cartesian basis functions
    37 alpha electrons       36 beta electrons
       nuclear repulsion energy       457.3389388631 Hartrees.
 NAtoms=   11 NActive=   11 NUniq=   11 SFac= 1.00D+00 NAtFMM=   60 NAOKFM=F Big=F
 Integral buffers will be    131072 words long.
 Raffenetti 2 integral format.
 Two-electron integral symmetry is turned on.
 One-electron integrals computed using PRISM.
 NBasis=   213 RedAO= T EigKep=  1.25D-06  NBF=   158    55
 NBsUse=   213 1.00D-06 EigRej= -1.00D+00 NBFU=   158    55
 Initial guess from the checkpoint file:  "frequency_chks/123-_23-ClBzNeutralRadical_Freq.chk"
 B after Tr=    -0.000000   -0.000000    0.000000
         Rot=    1.000000    0.000000    0.000000    0.000000 Ang=   0.00 deg.
 Initial guess orbital symmetries:
 Alpha Orbitals:
       Occupied  (A') (A') (A') (A') (A') (A') (A') (A') (A') (A')
                 (A') (A") (A') (A') (A") (A") (A') (A') (A') (A")
                 (A") (A") (A") (A') (A') (A") (A') (A') (A') (A')
                 (A') (A') (A') (A') (A') (A') (A')
       Virtual   (A') (A') (A') (A') (A') (A') (A') (A') (A') (A')
                 (A') (A') (A') (A') (A') (A') (A') (A') (A') (A')
                 (A') (A') (A') (A') (A') (A') (A') (A') (A') (A')
                 (A') (A') (A') (A') (A') (A') (A') (A') (A') (A')
                 (A') (A') (A') (A') (A') (A') (A') (A') (A') (A')
                 (A') (A') (A') (A') (A') (A') (A') (A') (A') (A')
                 (A') (A') (A') (A') (A') (A') (A') (A') (A') (A')
                 (A') (A') (A') (A') (A') (A') (A') (A') (A') (A')
                 (A') (A') (A') (A') (A') (A') (A') (A') (A') (A')
                 (A') (A') (A') (A') (A') (A') (A') (A') (A') (A')
                 (A') (A') (A') (A') (A') (A') (A') (A') (A') (A')
                 (A') (A') (A') (A') (A') (A') (A') (A') (A') (A')
                 (A') (A') (A') (A') (A') (A') (A') (A') (A') (A")
                 (A") (A") (A") (A") (A") (A") (A") (A") (A") (A")
                 (A") (A") (A") (A") (A") (A") (A") (A") (A") (A")
                 (A") (A") (A") (A") (A") (A") (A") (A") (A") (A")
                 (A") (A") (A") (A") (A") (A") (A") (A") (A") (A")
                 (A") (A") (A") (A") (A") (A")
 Beta  Orbitals:
       Occupied  (A') (A') (A') (A') (A') (A') (A') (A') (A') (A')
                 (A') (A") (A') (A') (A") (A") (A') (A') (A") (A")
                 (A') (A") (A") (A') (A') (A") (A') (A') (A') (A')
                 (A') (A') (A') (A') (A') (A')
       Virtual   (A') (A') (A') (A') (A') (A') (A') (A') (A') (A')
                 (A') (A') (A') (A') (A') (A') (A') (A') (A') (A')
                 (A') (A') (A') (A') (A') (A') (A') (A') (A') (A')
                 (A') (A') (A') (A') (A') (A') (A') (A') (A') (A')
                 (A') (A') (A') (A') (A') (A') (A') (A') (A') (A')
                 (A') (A') (A') (A') (A') (A') (A') (A') (A') (A')
                 (A') (A') (A') (A') (A') (A') (A') (A') (A') (A')
                 (A') (A') (A') (A') (A') (A') (A') (A') (A') (A')
                 (A') (A') (A') (A') (A') (A') (A') (A') (A') (A')
                 (A') (A') (A') (A') (A') (A') (A') (A') (A') (A')
                 (A') (A') (A') (A') (A') (A') (A') (A') (A') (A')
                 (A') (A') (A') (A') (A') (A') (A') (A') (A') (A')
                 (A') (A') (A') (A') (A') (A') (A') (A') (A') (A')
                 (A") (A") (A") (A") (A") (A") (A") (A") (A") (A")
                 (A") (A") (A") (A") (A") (A") (A") (A") (A") (A")
                 (A") (A") (A") (A") (A") (A") (A") (A") (A") (A")
                 (A") (A") (A") (A") (A") (A") (A") (A") (A") (A")
                 (A") (A") (A") (A") (A") (A") (A")
 Initial guess <Sx>= 0.0000 <Sy>= 0.0000 <Sz>= 0.5000 <S**2>= 0.7500 S= 0.5000
 Keep R1 and R2 ints in memory in symmetry-blocked form, NReq=411615841.
 Requested convergence on RMS density matrix=1.00D-08 within 128 cycles.
 Requested convergence on MAX density matrix=1.00D-06.
 Requested convergence on             energy=1.00D-06.
 No special actions if energy rises.
 EnCoef did     5 forward-backward iterations
 SCF Done:  E(UM062X) =  -1150.70481920     A.U. after   29 cycles
            NFock= 29  Conv=0.63D-08     -V/T= 2.0025
 <Sx>= 0.0000 <Sy>= 0.0000 <Sz>= 0.5000 <S**2>= 0.7628 S= 0.5064
 <L.S>=  0.00000000000    
 Annihilation of the first spin contaminant:
 S**2 before annihilation     0.7628,   after     0.7501

 **********************************************************************

            Population analysis using the SCF Density.

 **********************************************************************

 Orbital symmetries:
 Alpha Orbitals:
       Occupied  (A') (A') (A') (A') (A') (A') (A') (A') (A') (A')
                 (A') (A') (A") (A') (A") (A') (A') (A') (A') (A')
                 (A') (A') (A') (A') (A') (A') (A') (A") (A') (A')
                 (A") (A") (A') (A') (A") (A') (A")
       Virtual   (A") (A") (A') (A') (A') (A') (A') (A") (A') (A')
                 (A') (A") (A") (A') (A') (A") (A') (A') (A") (A')
                 (A') (A') (A") (A') (A") (A') (A') (A') (A") (A')
                 (A') (A') (A") (A') (A') (A') (A') (A') (A') (A')
                 (A') (A') (A') (A') (A') (A') (A') (A") (A') (A')
                 (A') (A') (A") (A') (A') (A") (A') (A') (A") (A")
                 (A') (A') (A") (A") (A') (A') (A") (A') (A') (A')
                 (A') (A') (A") (A') (A') (A') (A') (A') (A') (A")
                 (A") (A') (A') (A") (A') (A') (A') (A') (A") (A")
                 (A') (A") (A') (A') (A") (A') (A') (A") (A') (A")
                 (A') (A') (A') (A') (A") (A") (A') (A') (A') (A")
                 (A') (A') (A") (A') (A") (A') (A") (A') (A") (A')
                 (A') (A') (A") (A') (A") (A') (A") (A") (A') (A')
                 (A') (A') (A') (A') (A') (A") (A') (A') (A') (A')
                 (A') (A') (A") (A") (A") (A") (A') (A") (A') (A')
                 (A') (A') (A') (A') (A') (A') (A') (A') (A') (A')
                 (A') (A') (A') (A') (A') (A') (A') (A') (A") (A")
                 (A') (A') (A') (A') (A') (A')
 Beta  Orbitals:
       Occupied  (A') (A') (A') (A') (A') (A') (A') (A') (A') (A')
                 (A') (A') (A") (A') (A") (A') (A') (A') (A') (A')
                 (A') (A') (A') (A') (A') (A') (A') (A") (A') (A')
                 (A") (A") (A') (A') (A") (A")
       Virtual   (A') (A") (A') (A") (A') (A') (A') (A') (A") (A')
                 (A') (A") (A') (A") (A') (A') (A") (A') (A') (A")
                 (A') (A') (A") (A') (A') (A") (A') (A') (A') (A")
                 (A') (A') (A') (A") (A') (A') (A') (A') (A') (A')
                 (A') (A') (A') (A') (A') (A') (A') (A') (A') (A")
                 (A') (A') (A') (A") (A') (A') (A") (A') (A') (A')
                 (A") (A") (A') (A") (A") (A') (A') (A") (A') (A')
                 (A') (A') (A') (A") (A') (A') (A') (A') (A') (A')
                 (A") (A") (A') (A') (A") (A') (A') (A') (A') (A")
                 (A") (A') (A") (A') (A') (A') (A") (A') (A") (A')
                 (A") (A') (A') (A') (A') (A") (A") (A') (A') (A')
                 (A") (A') (A') (A") (A') (A") (A') (A") (A') (A")
                 (A') (A') (A') (A") (A') (A") (A') (A") (A") (A')
                 (A') (A') (A') (A') (A') (A') (A") (A') (A') (A')
                 (A') (A') (A') (A") (A") (A") (A") (A') (A") (A')
                 (A') (A') (A') (A') (A') (A') (A') (A') (A') (A')
                 (A') (A') (A') (A') (A') (A') (A') (A') (A') (A")
                 (A") (A') (A') (A') (A') (A') (A')
 The electronic state is 2-A'.
 Alpha  occ. eigenvalues -- -102.69342-102.69186 -10.63409 -10.63154 -10.59562
 Alpha  occ. eigenvalues --  -10.57961 -10.57727 -10.57656  -9.83678  -9.83532
 Alpha  occ. eigenvalues --   -7.56239  -7.56063  -7.55496  -7.55487  -7.55372
 Alpha  occ. eigenvalues --   -7.55346  -1.04417  -0.98362  -0.96033  -0.85463
 Alpha  occ. eigenvalues --   -0.84152  -0.70467  -0.70300  -0.60697  -0.57491
 Alpha  occ. eigenvalues --   -0.54756  -0.52815  -0.51010  -0.48443  -0.46337
 Alpha  occ. eigenvalues --   -0.43274  -0.41862  -0.40496  -0.38806  -0.32957
 Alpha  occ. eigenvalues --   -0.32709  -0.30853
 Alpha virt. eigenvalues --   -0.01162  -0.00583  -0.00528   0.01163   0.02007
 Alpha virt. eigenvalues --    0.03336   0.04419   0.05693   0.05889   0.07466
 Alpha virt. eigenvalues --    0.08048   0.08375   0.08654   0.09040   0.10210
 Alpha virt. eigenvalues --    0.11152   0.11702   0.12240   0.12628   0.12950
 Alpha virt. eigenvalues --    0.13300   0.13951   0.14029   0.14602   0.15294
 Alpha virt. eigenvalues --    0.15738   0.17332   0.18072   0.18427   0.19434
 Alpha virt. eigenvalues --    0.20242   0.20549   0.20928   0.22583   0.23289
 Alpha virt. eigenvalues --    0.24480   0.25355   0.26138   0.26327   0.27563
 Alpha virt. eigenvalues --    0.28366   0.29199   0.30385   0.33608   0.34169
 Alpha virt. eigenvalues --    0.34566   0.36670   0.46251   0.46509   0.46697
 Alpha virt. eigenvalues --    0.48258   0.49273   0.50109   0.50562   0.52964
 Alpha virt. eigenvalues --    0.54578   0.56663   0.57242   0.59805   0.60164
 Alpha virt. eigenvalues --    0.60848   0.62716   0.63162   0.64261   0.64508
 Alpha virt. eigenvalues --    0.67447   0.69766   0.69965   0.73644   0.76326
 Alpha virt. eigenvalues --    0.78460   0.79669   0.80884   0.85372   0.87158
 Alpha virt. eigenvalues --    0.87473   0.89749   0.90477   0.90950   0.91264
 Alpha virt. eigenvalues --    0.91516   0.93819   0.95045   0.95834   0.98465
 Alpha virt. eigenvalues --    0.99167   1.00292   1.02040   1.03134   1.04126
 Alpha virt. eigenvalues --    1.09530   1.13356   1.14294   1.21392   1.23202
 Alpha virt. eigenvalues --    1.24380   1.31217   1.32502   1.34121   1.35930
 Alpha virt. eigenvalues --    1.40017   1.50168   1.53080   1.56491   1.58782
 Alpha virt. eigenvalues --    1.62551   1.62614   1.66545   1.72296   1.73728
 Alpha virt. eigenvalues --    1.79686   1.81771   1.87291   1.90021   1.90768
 Alpha virt. eigenvalues --    1.91516   1.95390   1.97671   1.98491   2.00976
 Alpha virt. eigenvalues --    2.02299   2.16572   2.20774   2.26701   2.27687
 Alpha virt. eigenvalues --    2.29753   2.32400   2.33478   2.41098   2.43732
 Alpha virt. eigenvalues --    2.45855   2.48536   2.49862   2.54937   2.64301
 Alpha virt. eigenvalues --    2.68075   2.68704   2.71269   2.73492   2.73727
 Alpha virt. eigenvalues --    2.76397   2.76985   2.80738   2.82509   2.91231
 Alpha virt. eigenvalues --    2.93359   3.00226   3.10330   3.14856   3.24554
 Alpha virt. eigenvalues --    3.26573   3.35469   3.42152   3.51334   3.64934
 Alpha virt. eigenvalues --    3.77496   3.99053   4.06705   4.11855   4.76947
 Alpha virt. eigenvalues --    9.95824  10.00985  23.46752  23.89666  23.95283
 Alpha virt. eigenvalues --   24.04434  24.12039  24.21482  25.88903  25.97290
 Alpha virt. eigenvalues --   26.18056  26.28628  26.58685  26.90155 216.05696
 Alpha virt. eigenvalues --  216.11643
  Beta  occ. eigenvalues -- -102.69309-102.69164 -10.63341 -10.63189 -10.58592
  Beta  occ. eigenvalues --  -10.57878 -10.57749 -10.57683  -9.83664  -9.83524
  Beta  occ. eigenvalues --   -7.56159  -7.56024  -7.55501  -7.55458  -7.55357
  Beta  occ. eigenvalues --   -7.55329  -1.03994  -0.98127  -0.95330  -0.84188
  Beta  occ. eigenvalues --   -0.83758  -0.69914  -0.68774  -0.59962  -0.56838
  Beta  occ. eigenvalues --   -0.54055  -0.52469  -0.50609  -0.47288  -0.45852
  Beta  occ. eigenvalues --   -0.43118  -0.41506  -0.39989  -0.38625  -0.31733
  Beta  occ. eigenvalues --   -0.30883
  Beta virt. eigenvalues --   -0.07383  -0.01207  -0.00465   0.00516   0.01273
  Beta virt. eigenvalues --    0.02599   0.03338   0.04371   0.05764   0.05942
  Beta virt. eigenvalues --    0.06900   0.08028   0.08249   0.08685   0.09316
  Beta virt. eigenvalues --    0.10281   0.11256   0.11802   0.12247   0.12669
  Beta virt. eigenvalues --    0.12770   0.13362   0.14060   0.14120   0.14888
  Beta virt. eigenvalues --    0.15029   0.15874   0.17170   0.17681   0.18890
  Beta virt. eigenvalues --    0.19372   0.20188   0.20535   0.21176   0.22819
  Beta virt. eigenvalues --    0.23509   0.24027   0.25358   0.26045   0.26611
  Beta virt. eigenvalues --    0.27679   0.28503   0.28765   0.30548   0.34020
  Beta virt. eigenvalues --    0.34463   0.34624   0.37364   0.46258   0.46285
  Beta virt. eigenvalues --    0.46920   0.48029   0.49360   0.50174   0.50766
  Beta virt. eigenvalues --    0.53151   0.54754   0.56321   0.57342   0.58471
  Beta virt. eigenvalues --    0.59988   0.60183   0.61574   0.63289   0.64280
  Beta virt. eigenvalues --    0.64791   0.68489   0.69613   0.70553   0.73665
  Beta virt. eigenvalues --    0.75782   0.78776   0.79548   0.81073   0.85227
  Beta virt. eigenvalues --    0.87113   0.87571   0.89820   0.90587   0.91069
  Beta virt. eigenvalues --    0.91316   0.91594   0.93074   0.95946   0.95969
  Beta virt. eigenvalues --    0.98021   0.99135   1.00271   1.01857   1.03649
  Beta virt. eigenvalues --    1.04525   1.09517   1.13473   1.14957   1.21370
  Beta virt. eigenvalues --    1.23576   1.25011   1.31153   1.33402   1.33990
  Beta virt. eigenvalues --    1.36290   1.41084   1.50748   1.53592   1.57917
  Beta virt. eigenvalues --    1.58905   1.63090   1.63270   1.67013   1.72706
  Beta virt. eigenvalues --    1.73741   1.79992   1.82371   1.87562   1.90508
  Beta virt. eigenvalues --    1.90940   1.91840   1.96061   1.98200   1.98826
  Beta virt. eigenvalues --    2.01525   2.02844   2.16929   2.20876   2.26853
  Beta virt. eigenvalues --    2.27716   2.30144   2.32799   2.33556   2.41692
  Beta virt. eigenvalues --    2.44023   2.46253   2.48726   2.50193   2.55103
  Beta virt. eigenvalues --    2.64481   2.68191   2.69028   2.71756   2.73586
  Beta virt. eigenvalues --    2.74158   2.76755   2.76998   2.81214   2.82511
  Beta virt. eigenvalues --    2.91370   2.93166   3.03407   3.10398   3.15114
  Beta virt. eigenvalues --    3.24689   3.26986   3.35727   3.42560   3.51696
  Beta virt. eigenvalues --    3.65503   3.77636   3.99286   4.07020   4.11952
  Beta virt. eigenvalues --    4.77151   9.95833  10.00993  23.46898  23.89825
  Beta virt. eigenvalues --   23.95304  24.04550  24.12161  24.22027  25.88930
  Beta virt. eigenvalues --   25.97317  26.18119  26.28673  26.58839  26.90292
  Beta virt. eigenvalues --  216.05739 216.11687
          Condensed to atoms (all electrons):
               1          2          3          4          5          6
     1  C   22.322523  -4.872560  -0.028183  -2.974107  -1.006656  -6.521337
     2  C   -4.872560  24.146405  -8.337406   0.408749  -4.506353  -0.601941
     3  C   -0.028183  -8.337406  23.178446   0.211644   1.653640 -10.884743
     4  C   -2.974107   0.408749   0.211644   7.883481  -0.998309   1.121166
     5  C   -1.006656  -4.506353   1.653640  -0.998309  10.409618   0.700564
     6  C   -6.521337  -0.601941 -10.884743   1.121166   0.700564  23.199361
     7  Cl  -0.546587   0.249549   1.053942   0.032812  -0.001659  -1.577211
     8  Cl  -0.192942  -0.827097  -0.529360   0.031265   0.116692   0.849140
     9  H   -0.065943  -0.140058   0.502205   0.031006   0.014608  -0.024555
    10  H    0.054027   0.000120  -0.016553   0.330215  -0.031521  -0.010944
    11  H   -0.182065   0.035833  -0.046103   0.048323   0.381624   0.098783
               7          8          9         10         11
     1  C   -0.546587  -0.192942  -0.065943   0.054027  -0.182065
     2  C    0.249549  -0.827097  -0.140058   0.000120   0.035833
     3  C    1.053942  -0.529360   0.502205  -0.016553  -0.046103
     4  C    0.032812   0.031265   0.031006   0.330215   0.048323
     5  C   -0.001659   0.116692   0.014608  -0.031521   0.381624
     6  C   -1.577211   0.849140  -0.024555  -0.010944   0.098783
     7  Cl  17.616720  -0.298495  -0.001554   0.003278  -0.007943
     8  Cl  -0.298495  17.453328   0.008742  -0.011547   0.002604
     9  H   -0.001554   0.008742   0.470317  -0.007158   0.000649
    10  H    0.003278  -0.011547  -0.007158   0.468797   0.000073
    11  H   -0.007943   0.002604   0.000649   0.000073   0.470278
          Atomic-Atomic Spin Densities.
               1          2          3          4          5          6
     1  C    0.293346  -0.543751   0.140621  -0.270620   0.787679  -0.265558
     2  C   -0.543751   1.049063  -0.694881   0.253107  -0.484691   0.509330
     3  C    0.140621  -0.694881   1.176045  -0.339283   0.763101  -1.071601
     4  C   -0.270620   0.253107  -0.339283   0.429820  -0.623392   0.536894
     5  C    0.787679  -0.484691   0.763101  -0.623392   0.949050  -1.259470
     6  C   -0.265558   0.509330  -1.071601   0.536894  -1.259470   2.204622
     7  Cl  -0.058642   0.120266   0.044701   0.024367  -0.056823  -0.085289
     8  Cl   0.128527  -0.162033   0.026805  -0.060496   0.067066  -0.018773
     9  H    0.002567  -0.024864   0.030191  -0.003231   0.013807  -0.018268
    10  H   -0.019597   0.041930  -0.042116   0.025922  -0.061772   0.047519
    11  H   -0.017169   0.003993  -0.008473   0.003928  -0.000429   0.012811
               7          8          9         10         11
     1  C   -0.058642   0.128527   0.002567  -0.019597  -0.017169
     2  C    0.120266  -0.162033  -0.024864   0.041930   0.003993
     3  C    0.044701   0.026805   0.030191  -0.042116  -0.008473
     4  C    0.024367  -0.060496  -0.003231   0.025922   0.003928
     5  C   -0.056823   0.067066   0.013807  -0.061772  -0.000429
     6  C   -0.085289  -0.018773  -0.018268   0.047519   0.012811
     7  Cl   0.055887  -0.028702   0.000221   0.000081  -0.001242
     8  Cl  -0.028702   0.061762   0.001212  -0.002260   0.000623
     9  H    0.000221   0.001212   0.002599  -0.002144  -0.000271
    10  H    0.000081  -0.002260  -0.002144   0.018729   0.002678
    11  H   -0.001242   0.000623  -0.000271   0.002678   0.030863
 Mulliken charges and spin densities:
               1          2
     1  C    0.013829   0.177403
     2  C    0.444760   0.067470
     3  C   -0.757530   0.025111
     4  C   -0.126246  -0.022983
     5  C   -0.732248   0.094125
     6  C   -0.348283   0.592218
     7  Cl   0.477150   0.014823
     8  Cl   0.397669   0.013732
     9  H    0.211741   0.001819
    10  H    0.221214   0.008970
    11  H    0.197943   0.027312
 Sum of Mulliken charges =  -0.00000   1.00000
 Mulliken charges and spin densities with hydrogens summed into heavy atoms:
               1          2
     1  C    0.013829   0.177403
     2  C    0.444760   0.067470
     3  C   -0.545789   0.026930
     4  C    0.094968  -0.014013
     5  C   -0.534305   0.121437
     6  C   -0.348283   0.592218
     7  Cl   0.477150   0.014823
     8  Cl   0.397669   0.013732
 Electronic spatial extent (au):  <R**2>=           1256.5783
 Charge=              0.0000 electrons
 Dipole moment (field-independent basis, Debye):
    X=              2.3206    Y=              0.6242    Z=              0.0000  Tot=              2.4030
 Quadrupole moment (field-independent basis, Debye-Ang):
   XX=            -52.7894   YY=            -58.3330   ZZ=            -62.7616
   XY=              0.6893   XZ=              0.0000   YZ=              0.0000
 Traceless Quadrupole moment (field-independent basis, Debye-Ang):
   XX=              5.1719   YY=             -0.3717   ZZ=             -4.8002
   XY=              0.6893   XZ=              0.0000   YZ=              0.0000
 Octapole moment (field-independent basis, Debye-Ang**2):
  XXX=              5.7129  YYY=             10.1599  ZZZ=              0.0000  XYY=             -0.0200
  XXY=             -0.6587  XXZ=              0.0000  XZZ=            -10.0341  YZZ=              0.6637
  YYZ=              0.0000  XYZ=              0.0000
 Hexadecapole moment (field-independent basis, Debye-Ang**3):
 XXXX=           -838.2447 YYYY=           -667.9667 ZZZZ=            -73.3695 XXXY=             -2.0050
 XXXZ=              0.0000 YYYX=              8.8879 YYYZ=              0.0000 ZZZX=              0.0000
 ZZZY=              0.0000 XXYY=           -238.4506 XXZZ=           -185.4004 YYZZ=           -130.8003
 XXYZ=              0.0000 YYXZ=              0.0000 ZZXY=              1.0720
 N-N= 4.573389388631D+02 E-N=-3.636619129343D+03  KE= 1.147827936661D+03
 Symmetry A'   KE= 1.049538966541D+03
 Symmetry A"   KE= 9.828897012004D+01
 Symmetry A'   SP= 1.000000000000D+00
 Symmetry A"   SP=-1.160743076566D-14
                          Isotropic Fermi Contact Couplings
        Atom                 a.u.       MegaHertz       Gauss      10(-4) cm-1
     1  C(13)             -0.01184     -13.31487      -4.75108      -4.44136
     2  C(13)              0.04612      51.84735      18.50042      17.29441
     3  C(13)             -0.00758      -8.52541      -3.04208      -2.84377
     4  C(13)              0.05551      62.40336      22.26707      20.81552
     5  C(13)              0.00335       3.76737       1.34429       1.25666
     6  C(13)              0.42510     477.89667     170.52541     159.40917
     7  Cl(35)             0.02158       9.46135       3.37604       3.15597
     8  Cl(35)             0.00695       3.04702       1.08725       1.01637
     9  H(1)               0.00050       2.25425       0.80437       0.75194
    10  H(1)               0.00325      14.51513       5.17936       4.84173
    11  H(1)               0.01204      53.81640      19.20303      17.95122
 --------------------------------------------------------
       Center         ----  Spin Dipole Couplings  ----
                      3XX-RR        3YY-RR        3ZZ-RR
 --------------------------------------------------------
     1   Atom        0.087344      0.015648     -0.102992
     2   Atom       -0.025659      0.024140      0.001519
     3   Atom        0.018947      0.034207     -0.053154
     4   Atom       -0.037774      0.046452     -0.008677
     5   Atom        0.066004      0.034655     -0.100659
     6   Atom       -0.563203      0.960117     -0.396914
     7   Atom        0.223137     -0.076499     -0.146638
     8   Atom       -0.043202      0.077448     -0.034246
     9   Atom        0.001278      0.001308     -0.002586
    10   Atom        0.004461      0.000862     -0.005323
    11   Atom        0.021877     -0.009960     -0.011917
 --------------------------------------------------------
                        XY            XZ            YZ
 --------------------------------------------------------
     1   Atom       -0.063316      0.000000      0.000000
     2   Atom        0.008124      0.000000      0.000000
     3   Atom        0.000702      0.000000      0.000000
     4   Atom        0.018118      0.000000      0.000000
     5   Atom        0.051632      0.000000      0.000000
     6   Atom        0.129886      0.000000      0.000000
     7   Atom        0.016930      0.000000      0.000000
     8   Atom       -0.064344      0.000000      0.000000
     9   Atom       -0.000194      0.000000      0.000000
    10   Atom        0.007147      0.000000      0.000000
    11   Atom        0.003700      0.000000      0.000000
 --------------------------------------------------------


 ---------------------------------------------------------------------------------
              Anisotropic Spin Dipole Couplings in Principal Axis System
 ---------------------------------------------------------------------------------

       Atom             a.u.   MegaHertz   Gauss  10(-4) cm-1        Axes

              Baa    -0.1030   -13.820    -4.931    -4.610  0.0000  0.0000  1.0000
     1 C(13)  Bbb    -0.0213    -2.853    -1.018    -0.952  0.5036  0.8639  0.0000
              Bcc     0.1243    16.674     5.950     5.562  0.8639 -0.5036 -0.0000
 
              Baa    -0.0270    -3.617    -1.290    -1.206  0.9876 -0.1570 -0.0000
     2 C(13)  Bbb     0.0015     0.204     0.073     0.068  0.0000  0.0000  1.0000
              Bcc     0.0254     3.413     1.218     1.138  0.1570  0.9876  0.0000
 
              Baa    -0.0532    -7.133    -2.545    -2.379  0.0000  0.0000  1.0000
     3 C(13)  Bbb     0.0189     2.538     0.906     0.847  0.9989 -0.0458 -0.0000
              Bcc     0.0342     4.595     1.639     1.533  0.0458  0.9989  0.0000
 
              Baa    -0.0415    -5.570    -1.987    -1.858  0.9794 -0.2017 -0.0000
     4 C(13)  Bbb    -0.0087    -1.164    -0.415    -0.388  0.0000  0.0000  1.0000
              Bcc     0.0502     6.734     2.403     2.246  0.2017  0.9794  0.0000
 
              Baa    -0.1007   -13.507    -4.820    -4.506  0.0000  0.0000  1.0000
     5 C(13)  Bbb    -0.0036    -0.487    -0.174    -0.162 -0.5956  0.8033 -0.0000
              Bcc     0.1043    13.994     4.994     4.668  0.8033  0.5956  0.0000
 
              Baa    -0.5742   -77.052   -27.494   -25.702  0.9964 -0.0844 -0.0000
     6 C(13)  Bbb    -0.3969   -53.262   -19.005   -17.766  0.0000  0.0000  1.0000
              Bcc     0.9711   130.314    46.499    43.468  0.0844  0.9964  0.0000
 
              Baa    -0.1466    -7.675    -2.739    -2.560  0.0000  0.0000  1.0000
     7 Cl(35) Bbb    -0.0775    -4.054    -1.446    -1.352 -0.0562  0.9984 -0.0000
              Bcc     0.2241    11.728     4.185     3.912  0.9984  0.0562  0.0000
 
              Baa    -0.0711    -3.720    -1.327    -1.241  0.9176  0.3975  0.0000
     8 Cl(35) Bbb    -0.0342    -1.792    -0.640    -0.598  0.0000  0.0000  1.0000
              Bcc     0.1053     5.512     1.967     1.839 -0.3975  0.9176  0.0000
 
              Baa    -0.0026    -1.380    -0.492    -0.460  0.0000  0.0000  1.0000
     9 H(1)   Bbb     0.0011     0.586     0.209     0.195  0.7340  0.6792  0.0000
              Bcc     0.0015     0.794     0.283     0.265 -0.6792  0.7340  0.0000
 
              Baa    -0.0053    -2.840    -1.013    -0.947  0.0000  0.0000  1.0000
    10 H(1)   Bbb    -0.0047    -2.512    -0.896    -0.838 -0.6148  0.7887 -0.0000
              Bcc     0.0100     5.352     1.910     1.785  0.7887  0.6148  0.0000
 
              Baa    -0.0119    -6.359    -2.269    -2.121  0.0000  0.0000  1.0000
    11 H(1)   Bbb    -0.0104    -5.540    -1.977    -1.848 -0.1139  0.9935 -0.0000
              Bcc     0.0223    11.899     4.246     3.969  0.9935  0.1139  0.0000
 

 ---------------------------------------------------------------------------------

 Calling FoFJK, ICntrl=      2127 FMM=F ISym2X=1 I1Cent= 0 IOpClX= 1 NMat=1 NMatS=1 NMatT=0.
 ***** Axes restored to original set *****
 -------------------------------------------------------------------
 Center     Atomic                   Forces (Hartrees/Bohr)
 Number     Number              X              Y              Z
 -------------------------------------------------------------------
      1        6           0.041076665   -0.011533297   -0.000000000
      2        6           0.000152842   -0.031485138   -0.000000000
      3        6           0.003329411   -0.000410292   -0.000000000
      4        6           0.000262335   -0.000777693   -0.000000000
      5        6           0.007189322    0.003751017   -0.000000000
      6        6          -0.008971119   -0.002205133   -0.000000000
      7       17          -0.022167356    0.010445494   -0.000000000
      8       17          -0.000298161    0.021657463   -0.000000000
      9        1          -0.011738462   -0.004946918   -0.000000000
     10        1          -0.008711291    0.005632269   -0.000000000
     11        1          -0.000124188    0.009872229   -0.000000000
 -------------------------------------------------------------------
 Cartesian Forces:  Max     0.041076665 RMS     0.011562291

 GradGradGradGradGradGradGradGradGradGradGradGradGradGradGradGradGradGrad
 Berny optimization.
 FormGI is forming the generalized inverse of G from B-inverse, IUseBI=4.
 Internal  Forces:  Max     0.024504453 RMS     0.006775597
 Search for a local minimum.
 Step number   1 out of a maximum of   57
 All quantities printed in internal units (Hartrees-Bohrs-Radians)
 Mixed Optimization -- RFO/linear search
 Second derivative matrix not updated -- first step.
 ITU=  0
     Eigenvalues ---    0.01899   0.01950   0.02004   0.02021   0.02039
     Eigenvalues ---    0.02047   0.02154   0.02376   0.16000   0.16000
     Eigenvalues ---    0.16000   0.22076   0.23385   0.24890   0.25000
     Eigenvalues ---    0.25000   0.33538   0.33802   0.34028   0.37144
     Eigenvalues ---    0.38373   0.40346   0.42300   0.43441   0.44823
     Eigenvalues ---    0.48608   0.50402
 RFO step:  Lambda=-5.81195184D-03 EMin= 1.89850114D-02
 Linear search not attempted -- first point.
 Iteration  1 RMS(Cart)=  0.01733314 RMS(Int)=  0.00013503
 Iteration  2 RMS(Cart)=  0.00016404 RMS(Int)=  0.00003035
 Iteration  3 RMS(Cart)=  0.00000002 RMS(Int)=  0.00003035
 ClnCor:  largest displacement from symmetrization is 8.46D-09 for atom    10.
 Variable       Old X    -DE/DX   Delta X   Delta X   Delta X     New X
                                 (Linear)    (Quad)   (Total)
    R1        2.68232  -0.01130   0.00000  -0.02622  -0.02621   2.65611
    R2        2.60091  -0.00575   0.00000  -0.01097  -0.01092   2.58999
    R3        3.17526   0.02450   0.00000   0.06291   0.06291   3.23816
    R4        2.66091  -0.01237   0.00000  -0.02806  -0.02809   2.63282
    R5        3.19330   0.02166   0.00000   0.05741   0.05741   3.25072
    R6        2.64679  -0.01150   0.00000  -0.02542  -0.02547   2.62132
    R7        2.08116  -0.01259   0.00000  -0.03689  -0.03689   2.04428
    R8        2.66318  -0.00864   0.00000  -0.01933  -0.01935   2.64383
    R9        2.07665  -0.01033   0.00000  -0.03004  -0.03004   2.04661
   R10        2.58621  -0.00297   0.00000  -0.00529  -0.00525   2.58096
   R11        2.07283  -0.00987   0.00000  -0.02853  -0.02853   2.04431
    A1        2.00079   0.00558   0.00000   0.02226   0.02232   2.02311
    A2        2.14961  -0.00256   0.00000  -0.01024  -0.01027   2.13934
    A3        2.13279  -0.00302   0.00000  -0.01202  -0.01205   2.12074
    A4        2.08669   0.00089   0.00000   0.00221   0.00218   2.08887
    A5        2.10838  -0.00064   0.00000  -0.00186  -0.00185   2.10653
    A6        2.08812  -0.00025   0.00000  -0.00035  -0.00034   2.08778
    A7        2.12092  -0.00067   0.00000  -0.00535  -0.00543   2.11549
    A8        2.07892  -0.00171   0.00000  -0.00968  -0.00964   2.06928
    A9        2.08334   0.00238   0.00000   0.01503   0.01507   2.09841
   A10        2.09657   0.00065   0.00000   0.00152   0.00145   2.09803
   A11        2.09351  -0.00132   0.00000  -0.00678  -0.00674   2.08677
   A12        2.09310   0.00067   0.00000   0.00526   0.00529   2.09839
   A13        2.00482   0.00409   0.00000   0.01871   0.01873   2.02354
   A14        2.13622  -0.00194   0.00000  -0.00870  -0.00871   2.12751
   A15        2.14215  -0.00215   0.00000  -0.01001  -0.01002   2.13213
   A16        2.25658  -0.01054   0.00000  -0.03936  -0.03925   2.21733
    D1        0.00000   0.00000   0.00000  -0.00000   0.00000   0.00000
    D2        3.14159  -0.00000   0.00000  -0.00000   0.00000   3.14159
    D3        3.14159  -0.00000   0.00000  -0.00000   0.00000   3.14159
    D4        0.00000  -0.00000   0.00000  -0.00000   0.00000   0.00000
    D5        0.00000  -0.00000   0.00000  -0.00000   0.00000   0.00000
    D6        3.14159   0.00000   0.00000  -0.00000   0.00000   3.14159
    D7        0.00000   0.00000   0.00000   0.00000   0.00000   0.00000
    D8        3.14159   0.00000   0.00000   0.00000   0.00000   3.14159
    D9        3.14159   0.00000   0.00000   0.00000   0.00000   3.14159
   D10        0.00000  -0.00000   0.00000   0.00000   0.00000   0.00000
   D11        0.00000   0.00000   0.00000  -0.00000   0.00000   0.00000
   D12        3.14159  -0.00000   0.00000  -0.00000   0.00000   3.14159
   D13        3.14159   0.00000   0.00000  -0.00000   0.00000   3.14159
   D14        0.00000  -0.00000   0.00000  -0.00000   0.00000   0.00000
   D15        0.00000   0.00000   0.00000   0.00000   0.00000   0.00000
   D16        3.14159  -0.00000   0.00000   0.00000   0.00000   3.14159
   D17        3.14159  -0.00000   0.00000   0.00000   0.00000   3.14159
   D18        0.00000   0.00000   0.00000   0.00000   0.00000   0.00000
   D19        0.00000   0.00000   0.00000   0.00000   0.00000   0.00000
   D20        3.14159   0.00000   0.00000  -0.00000   0.00000   3.14159
         Item               Value     Threshold  Converged?
 Maximum Force            0.024504     0.000450     NO 
 RMS     Force            0.006776     0.000300     NO 
 Maximum Displacement     0.046626     0.001800     NO 
 RMS     Displacement     0.017353     0.001200     NO 
 Predicted change in Energy=-2.952907D-03
 GradGradGradGradGradGradGradGradGradGradGradGradGradGradGradGradGradGrad

                          Input orientation:                          
 ---------------------------------------------------------------------
 Center     Atomic      Atomic             Coordinates (Angstroms)
 Number     Number       Type             X           Y           Z
 ---------------------------------------------------------------------
      1          6           0       -3.111575    0.148102    0.000000
      2          6           0       -1.911061    0.879091    0.000000
      3          6           0       -0.692271    0.204081    0.000000
      4          6           0       -0.638311   -1.182010    0.000000
      5          6           0       -1.819084   -1.932433    0.000000
      6          6           0       -2.982083   -1.216330    0.000000
      7         17           0       -4.650562    0.901638    0.000000
      8         17           0       -1.930327    2.599188    0.000000
      9          1           0        0.220508    0.784678    0.000000
     10          1           0        0.323787   -1.679301    0.000000
     11          1           0       -1.808891   -3.014185    0.000000
 ---------------------------------------------------------------------
                    Distance matrix (angstroms):
                    1          2          3          4          5
     1  C    0.000000
     2  C    1.405553   0.000000
     3  C    2.419952   1.393229   0.000000
     4  C    2.808243   2.422401   1.387141   0.000000
     5  C    2.449317   2.813028   2.415450   1.399057   0.000000
     6  C    1.370563   2.353270   2.694589   2.344023   1.365785
     7  Cl   1.713563   2.739594   4.019285   4.521033   4.006148
     8  Cl   2.720877   1.720205   2.696168   3.995843   4.532986
     9  H    3.392346   2.133659   1.081785   2.146027   3.397444
    10  H    3.891158   3.397045   2.139977   1.083020   2.157771
    11  H    3.420094   3.894617   3.406476   2.174195   1.081801
                    6          7          8          9         10
     6  C    0.000000
     7  Cl   2.696221   0.000000
     8  Cl   3.957824   3.206455   0.000000
     9  H    3.776324   4.872474   2.813990   0.000000
    10  H    3.338131   5.604051   4.835959   2.466142   0.000000
    11  H    2.146780   4.838261   5.614687   4.306950   2.515995
                   11
    11  H    0.000000
 Stoichiometry    C6H3Cl2(2)
 Framework group  CS[SG(C6H3Cl2)]
 Deg. of freedom    19
 Full point group                 CS      NOp   2
 Largest Abelian subgroup         CS      NOp   2
 Largest concise Abelian subgroup C1      NOp   1
                         Standard orientation:                         
 ---------------------------------------------------------------------
 Center     Atomic      Atomic             Coordinates (Angstroms)
 Number     Number       Type             X           Y           Z
 ---------------------------------------------------------------------
      1          6           0       -0.060730   -0.735535    0.000000
      2          6           0        0.000000    0.668706    0.000000
      3          6           0        1.239080    1.305705    0.000000
      4          6           0        2.420747    0.579191    0.000000
      5          6           0        2.387149   -0.819462    0.000000
      6          6           0        1.144974   -1.387240    0.000000
      7         17           0       -1.543240   -1.594871    0.000000
      8         17           0       -1.439871    1.609917    0.000000
      9          1           0        1.264642    2.387188    0.000000
     10          1           0        3.369322    1.101816    0.000000
     11          1           0        3.291600   -1.412978    0.000000
 ---------------------------------------------------------------------
 Rotational constants (GHZ):           1.9740645           1.4362620           0.8313790
 Standard basis: 6-311++G(d,p) (5D, 7F)
 There are   166 symmetry adapted cartesian basis functions of A'  symmetry.
 There are    55 symmetry adapted cartesian basis functions of A"  symmetry.
 There are   158 symmetry adapted basis functions of A'  symmetry.
 There are    55 symmetry adapted basis functions of A"  symmetry.
   213 basis functions,   349 primitive gaussians,   221 cartesian basis functions
    37 alpha electrons       36 beta electrons
       nuclear repulsion energy       456.9908400030 Hartrees.
 NAtoms=   11 NActive=   11 NUniq=   11 SFac= 1.00D+00 NAtFMM=   60 NAOKFM=F Big=F
 Integral buffers will be    131072 words long.
 Raffenetti 2 integral format.
 Two-electron integral symmetry is turned on.
 One-electron integrals computed using PRISM.
 NBasis=   213 RedAO= T EigKep=  1.21D-06  NBF=   158    55
 NBsUse=   213 1.00D-06 EigRej= -1.00D+00 NBFU=   158    55
 Initial guess from the checkpoint file:  "frequency_chks/123-_23-ClBzNeutralRadical_Freq.chk"
 B after Tr=     0.000000    0.000000    0.000000
         Rot=    0.999866    0.000000    0.000000   -0.016344 Ang=  -1.87 deg.
 Initial guess orbital symmetries:
 Alpha Orbitals:
       Occupied  (A') (A') (A') (A') (A') (A') (A') (A') (A') (A')
                 (A') (A') (A") (A') (A") (A') (A') (A') (A') (A')
                 (A') (A') (A') (A') (A') (A') (A') (A") (A') (A')
                 (A") (A") (A') (A') (A") (A') (A")
       Virtual   (A") (A") (A') (A') (A') (A') (A') (A") (A') (A')
                 (A') (A") (A") (A') (A') (A") (A') (A') (A") (A')
                 (A') (A') (A") (A') (A") (A') (A') (A') (A") (A')
                 (A') (A') (A") (A') (A') (A') (A') (A') (A') (A')
                 (A') (A') (A') (A') (A') (A') (A') (A") (A') (A')
                 (A') (A') (A") (A') (A') (A") (A') (A') (A") (A")
                 (A') (A') (A") (A") (A') (A') (A") (A') (A') (A')
                 (A') (A') (A") (A') (A') (A') (A') (A') (A') (A")
                 (A") (A') (A') (A") (A') (A') (A') (A') (A") (A")
                 (A') (A") (A') (A') (A") (A') (A') (A") (A') (A")
                 (A') (A') (A') (A') (A") (A") (A') (A') (A') (A")
                 (A') (A') (A") (A') (A") (A') (A") (A') (A") (A')
                 (A') (A') (A") (A') (A") (A') (A") (A") (A') (A')
                 (A') (A') (A') (A') (A') (A") (A') (A') (A') (A')
                 (A') (A') (A") (A") (A") (A") (A') (A") (A') (A')
                 (A') (A') (A') (A') (A') (A') (A') (A') (A') (A')
                 (A') (A') (A') (A') (A') (A') (A') (A') (A") (A")
                 (A') (A') (A') (A') (A') (A')
 Beta  Orbitals:
       Occupied  (A') (A') (A') (A') (A') (A') (A') (A') (A') (A')
                 (A') (A') (A") (A') (A") (A') (A') (A') (A') (A')
                 (A') (A') (A') (A') (A') (A') (A') (A") (A') (A')
                 (A") (A") (A') (A') (A") (A")
       Virtual   (A') (A") (A') (A") (A') (A') (A') (A') (A") (A')
                 (A') (A") (A') (A") (A') (A') (A") (A') (A') (A")
                 (A') (A') (A") (A') (A') (A") (A') (A') (A') (A")
                 (A') (A') (A') (A") (A') (A') (A') (A') (A') (A')
                 (A') (A') (A') (A') (A') (A') (A') (A') (A') (A")
                 (A') (A') (A') (A") (A') (A') (A") (A') (A') (A')
                 (A") (A") (A') (A") (A") (A') (A') (A") (A') (A')
                 (A') (A') (A') (A") (A') (A') (A') (A') (A') (A')
                 (A") (A") (A') (A') (A") (A') (A') (A') (A') (A")
                 (A") (A') (A") (A') (A') (A') (A") (A') (A") (A')
                 (A") (A') (A') (A') (A') (A") (A") (A') (A') (A')
                 (A") (A') (A') (A") (A') (A") (A') (A") (A') (A")
                 (A') (A') (A') (A") (A') (A") (A') (A") (A") (A')
                 (A') (A') (A') (A') (A') (A') (A") (A') (A') (A')
                 (A') (A') (A') (A") (A") (A") (A") (A') (A") (A')
                 (A') (A') (A') (A') (A') (A') (A') (A') (A') (A')
                 (A') (A') (A') (A') (A') (A') (A') (A') (A') (A")
                 (A") (A') (A') (A') (A') (A') (A')
 Initial guess <Sx>= 0.0000 <Sy>= 0.0000 <Sz>= 0.5000 <S**2>= 0.7628 S= 0.5064
 ExpMin= 3.60D-02 ExpMax= 1.06D+05 ExpMxC= 3.62D+03 IAcc=3 IRadAn=         5 AccDes= 0.00D+00
 Harris functional with IExCor= 1009 and IRadAn=       5 diagonalized for initial guess.
 HarFok:  IExCor= 1009 AccDes= 0.00D+00 IRadAn=         5 IDoV= 1 UseB2=F ITyADJ=14
 ICtDFT=  3500011 ScaDFX=  1.000000  1.000000  1.000000  1.000000
 FoFCou: FMM=F IPFlag=           0 FMFlag=      100000 FMFlg1=           0
         NFxFlg=           0 DoJE=T BraDBF=F KetDBF=T FulRan=T
         wScrn=  0.000000 ICntrl=       500 IOpCl=  0 I1Cent=   200000004 NGrid=           0
         NMat0=    1 NMatS0=      1 NMatT0=    0 NMatD0=    1 NMtDS0=    0 NMtDT0=    0
 Petite list used in FoFCou.
 Keep R1 and R2 ints in memory in symmetry-blocked form, NReq=411615841.
 Requested convergence on RMS density matrix=1.00D-08 within 128 cycles.
 Requested convergence on MAX density matrix=1.00D-06.
 Requested convergence on             energy=1.00D-06.
 No special actions if energy rises.
 SCF Done:  E(UM062X) =  -1150.70823561     A.U. after   18 cycles
            NFock= 18  Conv=0.32D-08     -V/T= 2.0024
 <Sx>= 0.0000 <Sy>= 0.0000 <Sz>= 0.5000 <S**2>= 0.7625 S= 0.5062
 <L.S>=  0.00000000000    
 Annihilation of the first spin contaminant:
 S**2 before annihilation     0.7625,   after     0.7501
 Calling FoFJK, ICntrl=      2127 FMM=F ISym2X=1 I1Cent= 0 IOpClX= 1 NMat=1 NMatS=1 NMatT=0.
 ***** Axes restored to original set *****
 -------------------------------------------------------------------
 Center     Atomic                   Forces (Hartrees/Bohr)
 Number     Number              X              Y              Z
 -------------------------------------------------------------------
      1        6           0.012839044   -0.001389473   -0.000000000
      2        6          -0.003821054   -0.007951669   -0.000000000
      3        6           0.001283139    0.002246691   -0.000000000
      4        6          -0.001018760   -0.002151029   -0.000000000
      5        6           0.002979494    0.001578775   -0.000000000
      6        6          -0.005895085   -0.000406755   -0.000000000
      7       17          -0.006951129    0.002645269   -0.000000000
      8       17           0.000301397    0.005728227   -0.000000000
      9        1           0.000110611    0.000590473   -0.000000000
     10        1           0.000106645   -0.000239790   -0.000000000
     11        1           0.000065698   -0.000650719   -0.000000000
 -------------------------------------------------------------------
 Cartesian Forces:  Max     0.012839044 RMS     0.003447986

 GradGradGradGradGradGradGradGradGradGradGradGradGradGradGradGradGradGrad
 Berny optimization.
 Using GEDIIS/GDIIS optimizer.
 FormGI is forming the generalized inverse of G from B-inverse, IUseBI=4.
 Internal  Forces:  Max     0.007405827 RMS     0.001679335
 Search for a local minimum.
 Step number   2 out of a maximum of   57
 All quantities printed in internal units (Hartrees-Bohrs-Radians)
 Mixed Optimization -- RFO/linear search
 Update second derivatives using D2CorX and points    1    2
 DE= -3.42D-03 DEPred=-2.95D-03 R= 1.16D+00
 TightC=F SS=  1.41D+00  RLast= 1.27D-01 DXNew= 5.0454D-01 3.8214D-01
 Trust test= 1.16D+00 RLast= 1.27D-01 DXMaxT set to 3.82D-01
 ITU=  1  0
 Use linear search instead of GDIIS.
     Eigenvalues ---    0.01899   0.01950   0.02005   0.02021   0.02040
     Eigenvalues ---    0.02047   0.02154   0.02370   0.15929   0.16000
     Eigenvalues ---    0.16021   0.21252   0.22098   0.24349   0.25000
     Eigenvalues ---    0.25084   0.31505   0.33665   0.33930   0.35461
     Eigenvalues ---    0.37704   0.40183   0.42960   0.43836   0.44911
     Eigenvalues ---    0.49515   0.51700
 RFO step:  Lambda=-2.83767391D-04 EMin= 1.89860411D-02
 Quartic linear search produced a step of  0.22162.
 Iteration  1 RMS(Cart)=  0.00491241 RMS(Int)=  0.00002557
 Iteration  2 RMS(Cart)=  0.00002971 RMS(Int)=  0.00001310
 Iteration  3 RMS(Cart)=  0.00000000 RMS(Int)=  0.00001310
 ClnCor:  largest displacement from symmetrization is 1.81D-09 for atom     9.
 Variable       Old X    -DE/DX   Delta X   Delta X   Delta X     New X
                                 (Linear)    (Quad)   (Total)
    R1        2.65611  -0.00309  -0.00581  -0.00462  -0.01042   2.64570
    R2        2.58999  -0.00010  -0.00242   0.00151  -0.00089   2.58910
    R3        3.23816   0.00741   0.01394   0.01263   0.02657   3.26473
    R4        2.63282  -0.00007  -0.00623   0.00459  -0.00165   2.63117
    R5        3.25072   0.00572   0.01272   0.00883   0.02156   3.27227
    R6        2.62132   0.00166  -0.00564   0.00904   0.00337   2.62469
    R7        2.04428   0.00041  -0.00817   0.00791  -0.00027   2.04401
    R8        2.64383  -0.00043  -0.00429   0.00244  -0.00186   2.64197
    R9        2.04661   0.00021  -0.00666   0.00596  -0.00069   2.04592
   R10        2.58096   0.00241  -0.00116   0.00674   0.00559   2.58655
   R11        2.04431   0.00065  -0.00632   0.00730   0.00097   2.04528
    A1        2.02311   0.00230   0.00495   0.00653   0.01151   2.03462
    A2        2.13934  -0.00004  -0.00228   0.00201  -0.00028   2.13906
    A3        2.12074  -0.00227  -0.00267  -0.00854  -0.01123   2.10951
    A4        2.08887   0.00084   0.00048   0.00303   0.00351   2.09238
    A5        2.10653   0.00016  -0.00041   0.00147   0.00106   2.10759
    A6        2.08778  -0.00101  -0.00007  -0.00450  -0.00457   2.08321
    A7        2.11549  -0.00131  -0.00120  -0.00619  -0.00743   2.10806
    A8        2.06928   0.00020  -0.00214   0.00180  -0.00032   2.06896
    A9        2.09841   0.00111   0.00334   0.00439   0.00775   2.10616
   A10        2.09803   0.00007   0.00032   0.00102   0.00131   2.09933
   A11        2.08677   0.00013  -0.00149   0.00178   0.00030   2.08707
   A12        2.09839  -0.00020   0.00117  -0.00280  -0.00161   2.09678
   A13        2.02354   0.00108   0.00415   0.00354   0.00769   2.03124
   A14        2.12751  -0.00061  -0.00193  -0.00239  -0.00432   2.12319
   A15        2.13213  -0.00048  -0.00222  -0.00115  -0.00337   2.12876
   A16        2.21733  -0.00299  -0.00870  -0.00794  -0.01660   2.20073
    D1        0.00000  -0.00000   0.00000   0.00000   0.00000   0.00000
    D2        3.14159   0.00000   0.00000   0.00000   0.00000   3.14159
    D3        3.14159   0.00000   0.00000   0.00000   0.00000   3.14159
    D4        0.00000   0.00000   0.00000   0.00000   0.00000   0.00000
    D5        0.00000  -0.00000   0.00000   0.00000   0.00000   0.00000
    D6        3.14159   0.00000   0.00000  -0.00000   0.00000   3.14159
    D7        0.00000  -0.00000   0.00000  -0.00000   0.00000   0.00000
    D8        3.14159  -0.00000   0.00000   0.00000   0.00000   3.14159
    D9        3.14159  -0.00000   0.00000  -0.00000   0.00000   3.14159
   D10        0.00000  -0.00000   0.00000   0.00000   0.00000   0.00000
   D11        0.00000   0.00000   0.00000   0.00000   0.00000   0.00000
   D12        3.14159   0.00000   0.00000   0.00000   0.00000   3.14159
   D13        3.14159   0.00000   0.00000  -0.00000   0.00000   3.14159
   D14        0.00000   0.00000   0.00000   0.00000   0.00000   0.00000
   D15        0.00000   0.00000   0.00000   0.00000   0.00000   0.00000
   D16        3.14159   0.00000   0.00000   0.00000   0.00000   3.14159
   D17        3.14159  -0.00000   0.00000  -0.00000   0.00000   3.14159
   D18        0.00000  -0.00000   0.00000   0.00000   0.00000   0.00000
   D19        0.00000  -0.00000   0.00000  -0.00000   0.00000   0.00000
   D20        3.14159  -0.00000   0.00000  -0.00000   0.00000   3.14159
         Item               Value     Threshold  Converged?
 Maximum Force            0.007406     0.000450     NO 
 RMS     Force            0.001679     0.000300     NO 
 Maximum Displacement     0.014020     0.001800     NO 
 RMS     Displacement     0.004910     0.001200     NO 
 Predicted change in Energy=-2.546091D-04
 GradGradGradGradGradGradGradGradGradGradGradGradGradGradGradGradGradGrad

                          Input orientation:                          
 ---------------------------------------------------------------------
 Center     Atomic      Atomic             Coordinates (Angstroms)
 Number     Number       Type             X           Y           Z
 ---------------------------------------------------------------------
      1          6           0       -3.104688    0.144761    0.000000
      2          6           0       -1.909653    0.874149    0.000000
      3          6           0       -0.688559    0.205134    0.000000
      4          6           0       -0.638495   -1.182888    0.000000
      5          6           0       -1.819597   -1.930955    0.000000
      6          6           0       -2.989503   -1.220479    0.000000
      7         17           0       -4.656892    0.903274    0.000000
      8         17           0       -1.929040    2.605653    0.000000
      9          1           0        0.221251    0.790111    0.000000
     10          1           0        0.321701   -1.683049    0.000000
     11          1           0       -1.806396   -3.013191    0.000000
 ---------------------------------------------------------------------
                    Distance matrix (angstroms):
                    1          2          3          4          5
     1  C    0.000000
     2  C    1.400042   0.000000
     3  C    2.416884   1.392355   0.000000
     4  C    2.800850   2.418107   1.388925   0.000000
     5  C    2.441323   2.806549   2.417049   1.398072   0.000000
     6  C    1.370091   2.356595   2.706791   2.351308   1.368742
     7  Cl   1.727622   2.747394   4.029276   4.527647   4.010374
     8  Cl   2.727295   1.731613   2.702089   4.002318   4.537928
     9  H    3.387971   2.132560   1.081643   2.152182   3.401362
    10  H    3.883431   3.393847   2.141462   1.082653   2.155601
    11  H    3.414414   3.888711   3.406931   2.171175   1.082316
                    6          7          8          9         10
     6  C    0.000000
     7  Cl   2.700095   0.000000
     8  Cl   3.970374   3.215474   0.000000
     9  H    3.788325   4.879456   2.814240   0.000000
    10  H    3.343358   5.610299   4.843428   2.475198   0.000000
    11  H    2.147919   4.843968   5.620183   4.310042   2.509597
                   11
    11  H    0.000000
 Stoichiometry    C6H3Cl2(2)
 Framework group  CS[SG(C6H3Cl2)]
 Deg. of freedom    19
 Full point group                 CS      NOp   2
 Largest Abelian subgroup         CS      NOp   2
 Largest concise Abelian subgroup C1      NOp   1
                         Standard orientation:                         
 ---------------------------------------------------------------------
 Center     Atomic      Atomic             Coordinates (Angstroms)
 Number     Number       Type             X           Y           Z
 ---------------------------------------------------------------------
      1          6           0       -0.045974   -0.732012    0.000000
      2          6           0       -0.000000    0.667274    0.000000
      3          6           0        1.229342    1.321009    0.000000
      4          6           0        2.417205    0.601221    0.000000
      5          6           0        2.394493   -0.796666    0.000000
      6          6           0        1.158577   -1.384856    0.000000
      7         17           0       -1.531824   -1.613446    0.000000
      8         17           0       -1.458182    1.601185    0.000000
      9          1           0        1.239534    2.402604    0.000000
     10          1           0        3.362224    1.129499    0.000000
     11          1           0        3.306490   -1.379479    0.000000
 ---------------------------------------------------------------------
 Rotational constants (GHZ):           1.9640739           1.4324748           0.8283368
 Standard basis: 6-311++G(d,p) (5D, 7F)
 There are   166 symmetry adapted cartesian basis functions of A'  symmetry.
 There are    55 symmetry adapted cartesian basis functions of A"  symmetry.
 There are   158 symmetry adapted basis functions of A'  symmetry.
 There are    55 symmetry adapted basis functions of A"  symmetry.
   213 basis functions,   349 primitive gaussians,   221 cartesian basis functions
    37 alpha electrons       36 beta electrons
       nuclear repulsion energy       456.1014307530 Hartrees.
 NAtoms=   11 NActive=   11 NUniq=   11 SFac= 1.00D+00 NAtFMM=   60 NAOKFM=F Big=F
 Integral buffers will be    131072 words long.
 Raffenetti 2 integral format.
 Two-electron integral symmetry is turned on.
 One-electron integrals computed using PRISM.
 NBasis=   213 RedAO= T EigKep=  1.23D-06  NBF=   158    55
 NBsUse=   213 1.00D-06 EigRej= -1.00D+00 NBFU=   158    55
 Initial guess from the checkpoint file:  "frequency_chks/123-_23-ClBzNeutralRadical_Freq.chk"
 B after Tr=    -0.000000   -0.000000    0.000000
         Rot=    0.999989   -0.000000   -0.000000   -0.004585 Ang=  -0.53 deg.
 Initial guess orbital symmetries:
 Alpha Orbitals:
       Occupied  (A') (A') (A') (A') (A') (A') (A') (A') (A') (A')
                 (A') (A') (A") (A') (A") (A') (A') (A') (A') (A')
                 (A') (A') (A') (A') (A') (A') (A') (A") (A') (A')
                 (A") (A") (A') (A') (A") (A') (A")
       Virtual   (A") (A") (A') (A') (A') (A') (A') (A") (A') (A')
                 (A') (A") (A") (A') (A') (A") (A') (A') (A") (A')
                 (A') (A') (A") (A') (A') (A") (A') (A') (A") (A')
                 (A') (A') (A") (A') (A') (A') (A') (A') (A') (A')
                 (A') (A') (A') (A') (A') (A') (A') (A") (A') (A')
                 (A') (A') (A") (A') (A') (A") (A') (A') (A") (A")
                 (A') (A') (A") (A") (A') (A') (A") (A') (A') (A')
                 (A') (A') (A") (A') (A') (A') (A') (A') (A') (A")
                 (A") (A') (A') (A") (A') (A') (A') (A') (A") (A")
                 (A') (A") (A') (A') (A") (A') (A') (A") (A') (A")
                 (A') (A') (A') (A') (A") (A') (A") (A') (A') (A")
                 (A') (A') (A") (A') (A") (A') (A") (A') (A") (A')
                 (A') (A') (A") (A') (A") (A') (A") (A") (A') (A')
                 (A') (A') (A') (A') (A') (A") (A') (A') (A') (A')
                 (A') (A') (A") (A") (A") (A") (A') (A") (A') (A')
                 (A') (A') (A') (A') (A') (A') (A') (A') (A') (A')
                 (A') (A') (A') (A') (A') (A') (A') (A') (A") (A")
                 (A') (A') (A') (A') (A') (A')
 Beta  Orbitals:
       Occupied  (A') (A') (A') (A') (A') (A') (A') (A') (A') (A')
                 (A') (A') (A") (A') (A") (A') (A') (A') (A') (A')
                 (A') (A') (A') (A') (A') (A') (A') (A") (A') (A')
                 (A") (A") (A') (A') (A") (A")
       Virtual   (A') (A") (A') (A") (A') (A') (A') (A') (A") (A')
                 (A') (A") (A') (A") (A') (A') (A") (A') (A') (A")
                 (A') (A') (A') (A") (A') (A") (A') (A') (A') (A")
                 (A') (A') (A') (A") (A') (A') (A') (A') (A') (A')
                 (A') (A') (A') (A') (A') (A') (A') (A') (A') (A")
                 (A') (A') (A') (A") (A') (A') (A") (A') (A') (A')
                 (A") (A") (A') (A") (A") (A') (A') (A") (A') (A')
                 (A') (A') (A') (A") (A') (A') (A') (A') (A') (A')
                 (A") (A") (A') (A') (A") (A') (A') (A') (A') (A")
                 (A") (A') (A") (A') (A') (A') (A") (A') (A") (A')
                 (A") (A') (A') (A') (A') (A") (A') (A") (A') (A')
                 (A") (A') (A') (A") (A') (A") (A') (A") (A') (A")
                 (A') (A') (A') (A") (A') (A") (A') (A") (A") (A')
                 (A') (A') (A') (A') (A') (A') (A") (A') (A') (A')
                 (A') (A') (A') (A") (A") (A") (A") (A') (A") (A')
                 (A') (A') (A') (A') (A') (A') (A') (A') (A') (A')
                 (A') (A') (A') (A') (A') (A') (A') (A') (A') (A")
                 (A") (A') (A') (A') (A') (A') (A')
 Initial guess <Sx>= 0.0000 <Sy>= 0.0000 <Sz>= 0.5000 <S**2>= 0.7625 S= 0.5062
 Keep R1 and R2 ints in memory in symmetry-blocked form, NReq=411615841.
 Requested convergence on RMS density matrix=1.00D-08 within 128 cycles.
 Requested convergence on MAX density matrix=1.00D-06.
 Requested convergence on             energy=1.00D-06.
 No special actions if energy rises.
 SCF Done:  E(UM062X) =  -1150.70852259     A.U. after   17 cycles
            NFock= 17  Conv=0.37D-08     -V/T= 2.0025
 <Sx>= 0.0000 <Sy>= 0.0000 <Sz>= 0.5000 <S**2>= 0.7626 S= 0.5063
 <L.S>=  0.00000000000    
 Annihilation of the first spin contaminant:
 S**2 before annihilation     0.7626,   after     0.7501
 Calling FoFJK, ICntrl=      2127 FMM=F ISym2X=1 I1Cent= 0 IOpClX= 1 NMat=1 NMatS=1 NMatT=0.
 ***** Axes restored to original set *****
 -------------------------------------------------------------------
 Center     Atomic                   Forces (Hartrees/Bohr)
 Number     Number              X              Y              Z
 -------------------------------------------------------------------
      1        6           0.002117890    0.000251957   -0.000000000
      2        6          -0.001185054   -0.000736862   -0.000000000
      3        6           0.000322522    0.000396118   -0.000000000
      4        6          -0.000638050   -0.000141988   -0.000000000
      5        6           0.000550608    0.000265889   -0.000000000
      6        6          -0.000864786   -0.000084696   -0.000000000
      7       17          -0.001104498    0.000271725   -0.000000000
      8       17           0.000081092    0.000387986   -0.000000000
      9        1           0.000355821    0.000121968   -0.000000000
     10        1           0.000305377   -0.000346368   -0.000000000
     11        1           0.000059078   -0.000385728   -0.000000000
 -------------------------------------------------------------------
 Cartesian Forces:  Max     0.002117890 RMS     0.000557896

 GradGradGradGradGradGradGradGradGradGradGradGradGradGradGradGradGradGrad
 Berny optimization.
 Using GEDIIS/GDIIS optimizer.
 FormGI is forming the generalized inverse of G from B-inverse, IUseBI=4.
 Internal  Forces:  Max     0.001111359 RMS     0.000284005
 Search for a local minimum.
 Step number   3 out of a maximum of   57
 All quantities printed in internal units (Hartrees-Bohrs-Radians)
 Mixed Optimization -- En-DIIS/RFO-DIIS
 Update second derivatives using D2CorX and points    1    2    3
 DE= -2.87D-04 DEPred=-2.55D-04 R= 1.13D+00
 TightC=F SS=  1.41D+00  RLast= 4.59D-02 DXNew= 6.4268D-01 1.3772D-01
 Trust test= 1.13D+00 RLast= 4.59D-02 DXMaxT set to 3.82D-01
 ITU=  1  1  0
 Use linear search instead of GDIIS.
     Eigenvalues ---    0.01898   0.01949   0.02004   0.02020   0.02040
     Eigenvalues ---    0.02046   0.02154   0.02368   0.15887   0.16000
     Eigenvalues ---    0.16065   0.19234   0.22156   0.24188   0.25006
     Eigenvalues ---    0.25091   0.30585   0.33671   0.33925   0.35593
     Eigenvalues ---    0.37687   0.40140   0.43020   0.43943   0.44916
     Eigenvalues ---    0.49619   0.51687
 RFO step:  Lambda=-4.61964353D-06 EMin= 1.89834396D-02
 Quartic linear search produced a step of  0.16071.
 Iteration  1 RMS(Cart)=  0.00114420 RMS(Int)=  0.00000151
 Iteration  2 RMS(Cart)=  0.00000157 RMS(Int)=  0.00000116
 Iteration  3 RMS(Cart)=  0.00000000 RMS(Int)=  0.00000116
 ClnCor:  largest displacement from symmetrization is 6.79D-10 for atom     9.
 Variable       Old X    -DE/DX   Delta X   Delta X   Delta X     New X
                                 (Linear)    (Quad)   (Total)
    R1        2.64570  -0.00064  -0.00167  -0.00067  -0.00234   2.64335
    R2        2.58910   0.00018  -0.00014   0.00038   0.00024   2.58934
    R3        3.26473   0.00111   0.00427   0.00051   0.00478   3.26951
    R4        2.63117   0.00045  -0.00027   0.00109   0.00083   2.63200
    R5        3.27227   0.00039   0.00346  -0.00102   0.00244   3.27472
    R6        2.62469   0.00047   0.00054   0.00050   0.00104   2.62572
    R7        2.04401   0.00037  -0.00004   0.00089   0.00084   2.04485
    R8        2.64197  -0.00017  -0.00030  -0.00038  -0.00068   2.64130
    R9        2.04592   0.00043  -0.00011   0.00123   0.00112   2.04704
   R10        2.58655   0.00043   0.00090   0.00015   0.00105   2.58760
   R11        2.04528   0.00039   0.00016   0.00087   0.00102   2.04631
    A1        2.03462   0.00033   0.00185   0.00018   0.00203   2.03665
    A2        2.13906   0.00023  -0.00005   0.00106   0.00101   2.14007
    A3        2.10951  -0.00057  -0.00180  -0.00123  -0.00304   2.10647
    A4        2.09238   0.00009   0.00056  -0.00007   0.00050   2.09288
    A5        2.10759   0.00009   0.00017   0.00027   0.00044   2.10803
    A6        2.08321  -0.00018  -0.00073  -0.00020  -0.00094   2.08227
    A7        2.10806  -0.00030  -0.00119  -0.00056  -0.00176   2.10630
    A8        2.06896   0.00024  -0.00005   0.00129   0.00124   2.07020
    A9        2.10616   0.00006   0.00125  -0.00072   0.00053   2.10668
   A10        2.09933   0.00013   0.00021   0.00070   0.00091   2.10024
   A11        2.08707   0.00010   0.00005   0.00066   0.00071   2.08778
   A12        2.09678  -0.00023  -0.00026  -0.00136  -0.00162   2.09516
   A13        2.03124   0.00003   0.00124  -0.00054   0.00069   2.03193
   A14        2.12319  -0.00008  -0.00069  -0.00009  -0.00079   2.12240
   A15        2.12876   0.00004  -0.00054   0.00063   0.00009   2.12885
   A16        2.20073  -0.00029  -0.00267   0.00030  -0.00237   2.19837
    D1        0.00000   0.00000   0.00000  -0.00000   0.00000   0.00000
    D2        3.14159   0.00000   0.00000   0.00000   0.00000   3.14159
    D3        3.14159  -0.00000   0.00000  -0.00000   0.00000   3.14159
    D4        0.00000  -0.00000   0.00000  -0.00000   0.00000   0.00000
    D5        0.00000   0.00000   0.00000  -0.00000   0.00000   0.00000
    D6        3.14159   0.00000   0.00000   0.00000   0.00000   3.14159
    D7        0.00000   0.00000   0.00000   0.00000   0.00000   0.00000
    D8        3.14159  -0.00000   0.00000   0.00000   0.00000   3.14159
    D9        3.14159  -0.00000   0.00000   0.00000   0.00000   3.14159
   D10        0.00000  -0.00000   0.00000   0.00000   0.00000   0.00000
   D11        0.00000   0.00000   0.00000  -0.00000   0.00000   0.00000
   D12        3.14159   0.00000   0.00000  -0.00000   0.00000   3.14159
   D13        3.14159  -0.00000   0.00000  -0.00000   0.00000   3.14159
   D14        0.00000  -0.00000   0.00000  -0.00000   0.00000   0.00000
   D15        0.00000   0.00000   0.00000  -0.00000   0.00000   0.00000
   D16        3.14159   0.00000   0.00000   0.00000   0.00000   3.14159
   D17        3.14159   0.00000   0.00000   0.00000   0.00000   3.14159
   D18        0.00000   0.00000   0.00000   0.00000   0.00000   0.00000
   D19        0.00000   0.00000   0.00000   0.00000   0.00000   0.00000
   D20        3.14159  -0.00000   0.00000   0.00000   0.00000   3.14159
         Item               Value     Threshold  Converged?
 Maximum Force            0.001111     0.000450     NO 
 RMS     Force            0.000284     0.000300     YES
 Maximum Displacement     0.003901     0.001800     NO 
 RMS     Displacement     0.001145     0.001200     YES
 Predicted change in Energy=-7.417453D-06
 GradGradGradGradGradGradGradGradGradGradGradGradGradGradGradGradGradGrad

                          Input orientation:                          
 ---------------------------------------------------------------------
 Center     Atomic      Atomic             Coordinates (Angstroms)
 Number     Number       Type             X           Y           Z
 ---------------------------------------------------------------------
      1          6           0       -3.103457    0.144901    0.000000
      2          6           0       -1.909727    0.874048    0.000000
      3          6           0       -0.687690    0.205842    0.000000
      4          6           0       -0.638893   -1.182774    0.000000
      5          6           0       -1.819705   -1.930630    0.000000
      6          6           0       -2.990566   -1.220658    0.000000
      7         17           0       -4.658956    0.902422    0.000000
      8         17           0       -1.928952    2.606847    0.000000
      9          1           0        0.222729    0.790695    0.000000
     10          1           0        0.321011   -1.684776    0.000000
     11          1           0       -1.805664   -3.013397    0.000000
 ---------------------------------------------------------------------
                    Distance matrix (angstroms):
                    1          2          3          4          5
     1  C    0.000000
     2  C    1.398802   0.000000
     3  C    2.416535   1.392793   0.000000
     4  C    2.799428   2.417754   1.389474   0.000000
[...]
      7       17          -0.000050768   -0.000015768   -0.000000000
      8       17           0.000006977   -0.000183588   -0.000000000
      9        1           0.000032139   -0.000030909   -0.000000000
     10        1           0.000014001   -0.000043422   -0.000000000
     11        1           0.000012622   -0.000010956   -0.000000000
 -------------------------------------------------------------------
 Cartesian Forces:  Max     0.000212332 RMS     0.000078788
 FormGI is forming the generalized inverse of G from B-inverse, IUseBI=4.

 GradGradGradGradGradGradGradGradGradGradGradGradGradGradGradGradGradGrad
 Berny optimization.
 Internal  Forces:  Max     0.000183886 RMS     0.000044414
 Search for a local minimum.
 Step number   1 out of a maximum of    2
 All quantities printed in internal units (Hartrees-Bohrs-Radians)
 Second derivative matrix not updated -- analytic derivatives used.
 ITU=  0
     Eigenvalues ---    0.01620   0.01802   0.01892   0.02389   0.02708
     Eigenvalues ---    0.02852   0.03371   0.03734   0.10522   0.11405
     Eigenvalues ---    0.11969   0.15167   0.17389   0.18169   0.18738
     Eigenvalues ---    0.20800   0.25280   0.28628   0.30411   0.36492
     Eigenvalues ---    0.36617   0.36946   0.43017   0.43874   0.48207
     Eigenvalues ---    0.49408   0.52753
 Angle between quadratic step and forces=  19.27 degrees.
 Linear search not attempted -- first point.
 Iteration  1 RMS(Cart)=  0.00026216 RMS(Int)=  0.00000006
 Iteration  2 RMS(Cart)=  0.00000007 RMS(Int)=  0.00000001
 ClnCor:  largest displacement from symmetrization is 3.43D-15 for atom     9.
 Variable       Old X    -DE/DX   Delta X   Delta X   Delta X     New X
                                 (Linear)    (Quad)   (Total)
    R1        2.64335  -0.00006   0.00000  -0.00029  -0.00029   2.64306
    R2        2.58934   0.00006   0.00000   0.00019   0.00019   2.58953
    R3        3.26951   0.00004   0.00000   0.00028   0.00028   3.26978
    R4        2.63200   0.00009   0.00000   0.00036   0.00036   2.63235
    R5        3.27472  -0.00018   0.00000  -0.00085  -0.00085   3.27387
    R6        2.62572  -0.00001   0.00000  -0.00017  -0.00017   2.62555
    R7        2.04485   0.00001   0.00000   0.00003   0.00003   2.04488
    R8        2.64130   0.00010   0.00000   0.00037   0.00037   2.64167
    R9        2.04704   0.00003   0.00000   0.00011   0.00011   2.04714
   R10        2.58760  -0.00002   0.00000  -0.00012  -0.00012   2.58748
   R11        2.04631   0.00001   0.00000   0.00001   0.00001   2.04631
    A1        2.03665   0.00006   0.00000   0.00045   0.00045   2.03710
    A2        2.14007   0.00004   0.00000   0.00019   0.00019   2.14026
    A3        2.10647  -0.00010   0.00000  -0.00065  -0.00065   2.10582
    A4        2.09288  -0.00003   0.00000  -0.00036  -0.00036   2.09252
    A5        2.10803   0.00002   0.00000   0.00019   0.00019   2.10823
    A6        2.08227   0.00001   0.00000   0.00016   0.00016   2.08244
    A7        2.10630  -0.00002   0.00000  -0.00003  -0.00003   2.10627
    A8        2.07020   0.00005   0.00000   0.00034   0.00034   2.07054
    A9        2.10668  -0.00003   0.00000  -0.00031  -0.00031   2.10637
   A10        2.10024   0.00005   0.00000   0.00035   0.00035   2.10059
   A11        2.08778   0.00000   0.00000   0.00010   0.00010   2.08788
   A12        2.09516  -0.00005   0.00000  -0.00045  -0.00045   2.09471
   A13        2.03193  -0.00006   0.00000  -0.00036  -0.00036   2.03157
   A14        2.12240   0.00001   0.00000  -0.00007  -0.00007   2.12233
   A15        2.12885   0.00005   0.00000   0.00043   0.00043   2.12929
   A16        2.19837   0.00000   0.00000  -0.00005  -0.00005   2.19832
    D1        0.00000  -0.00000   0.00000   0.00000   0.00000   0.00000
    D2        3.14159   0.00000   0.00000   0.00000   0.00000   3.14159
    D3        3.14159  -0.00000   0.00000   0.00000   0.00000   3.14159
    D4        0.00000  -0.00000   0.00000   0.00000   0.00000   0.00000
    D5        0.00000   0.00000   0.00000  -0.00000   0.00000   0.00000
    D6        3.14159   0.00000   0.00000  -0.00000   0.00000   3.14159
    D7        0.00000   0.00000   0.00000   0.00000   0.00000   0.00000
    D8        3.14159  -0.00000   0.00000   0.00000   0.00000   3.14159
    D9        3.14159   0.00000   0.00000   0.00000   0.00000   3.14159
   D10        0.00000   0.00000   0.00000   0.00000   0.00000   0.00000
   D11        0.00000  -0.00000   0.00000  -0.00000   0.00000   0.00000
   D12        3.14159  -0.00000   0.00000  -0.00000   0.00000   3.14159
   D13        3.14159  -0.00000   0.00000  -0.00000   0.00000   3.14159
   D14        0.00000  -0.00000   0.00000  -0.00000   0.00000   0.00000
   D15        0.00000  -0.00000   0.00000   0.00000   0.00000   0.00000
   D16        3.14159  -0.00000   0.00000   0.00000   0.00000   3.14159
   D17        3.14159  -0.00000   0.00000   0.00000   0.00000   3.14159
   D18        0.00000   0.00000   0.00000   0.00000   0.00000   0.00000
   D19        0.00000   0.00000   0.00000   0.00000   0.00000   0.00000
   D20        3.14159  -0.00000   0.00000  -0.00000   0.00000   3.14159
         Item               Value     Threshold  Converged?
 Maximum Force            0.000184     0.000450     YES
 RMS     Force            0.000044     0.000300     YES
 Maximum Displacement     0.000776     0.001800     YES
 RMS     Displacement     0.000262     0.001200     YES
 Predicted change in Energy=-2.476491D-07
 Optimization completed.
    -- Stationary point found.
                           ----------------------------
                           !   Optimized Parameters   !
                           ! (Angstroms and Degrees)  !
 --------------------------                            --------------------------
 ! Name  Definition              Value          Derivative Info.                !
 --------------------------------------------------------------------------------
 ! R1    R(1,2)                  1.3988         -DE/DX =   -0.0001              !
 ! R2    R(1,6)                  1.3702         -DE/DX =    0.0001              !
 ! R3    R(1,7)                  1.7301         -DE/DX =    0.0                 !
 ! R4    R(2,3)                  1.3928         -DE/DX =    0.0001              !
 ! R5    R(2,8)                  1.7329         -DE/DX =   -0.0002              !
 ! R6    R(3,4)                  1.3895         -DE/DX =    0.0                 !
 ! R7    R(3,9)                  1.0821         -DE/DX =    0.0                 !
 ! R8    R(4,5)                  1.3977         -DE/DX =    0.0001              !
 ! R9    R(4,10)                 1.0832         -DE/DX =    0.0                 !
 ! R10   R(5,6)                  1.3693         -DE/DX =    0.0                 !
 ! R11   R(5,11)                 1.0829         -DE/DX =    0.0                 !
 ! A1    A(2,1,6)              116.6912         -DE/DX =    0.0001              !
 ! A2    A(2,1,7)              122.617          -DE/DX =    0.0                 !
 ! A3    A(6,1,7)              120.6918         -DE/DX =   -0.0001              !
 ! A4    A(1,2,3)              119.9131         -DE/DX =    0.0                 !
 ! A5    A(1,2,8)              120.7815         -DE/DX =    0.0                 !
 ! A6    A(3,2,8)              119.3054         -DE/DX =    0.0                 !
 ! A7    A(2,3,4)              120.6823         -DE/DX =    0.0                 !
 ! A8    A(2,3,9)              118.6136         -DE/DX =    0.0001              !
 ! A9    A(4,3,9)              120.7041         -DE/DX =    0.0                 !
 ! A10   A(3,4,5)              120.3351         -DE/DX =    0.0001              !
 ! A11   A(3,4,10)             119.6209         -DE/DX =    0.0                 !
 ! A12   A(5,4,10)             120.044          -DE/DX =   -0.0001              !
 ! A13   A(4,5,6)              116.421          -DE/DX =   -0.0001              !
 ! A14   A(4,5,11)             121.6048         -DE/DX =    0.0                 !
 ! A15   A(6,5,11)             121.9742         -DE/DX =    0.0                 !
 ! A16   A(1,6,5)              125.9572         -DE/DX =    0.0                 !
 ! D1    D(6,1,2,3)              0.0            -DE/DX =    0.0                 !
 ! D2    D(6,1,2,8)            180.0            -DE/DX =    0.0                 !
 ! D3    D(7,1,2,3)            180.0            -DE/DX =    0.0                 !
 ! D4    D(7,1,2,8)              0.0            -DE/DX =    0.0                 !
 ! D5    D(2,1,6,5)              0.0            -DE/DX =    0.0                 !
 ! D6    D(7,1,6,5)            180.0            -DE/DX =    0.0                 !
 ! D7    D(1,2,3,4)              0.0            -DE/DX =    0.0                 !
 ! D8    D(1,2,3,9)            180.0            -DE/DX =    0.0                 !
 ! D9    D(8,2,3,4)            180.0            -DE/DX =    0.0                 !
 ! D10   D(8,2,3,9)              0.0            -DE/DX =    0.0                 !
 ! D11   D(2,3,4,5)              0.0            -DE/DX =    0.0                 !
 ! D12   D(2,3,4,10)           180.0            -DE/DX =    0.0                 !
 ! D13   D(9,3,4,5)            180.0            -DE/DX =    0.0                 !
 ! D14   D(9,3,4,10)             0.0            -DE/DX =    0.0                 !
 ! D15   D(3,4,5,6)              0.0            -DE/DX =    0.0                 !
 ! D16   D(3,4,5,11)           180.0            -DE/DX =    0.0                 !
 ! D17   D(10,4,5,6)           180.0            -DE/DX =    0.0                 !
 ! D18   D(10,4,5,11)            0.0            -DE/DX =    0.0                 !
 ! D19   D(4,5,6,1)              0.0            -DE/DX =    0.0                 !
 ! D20   D(11,5,6,1)           180.0            -DE/DX =    0.0                 !
 --------------------------------------------------------------------------------
 GradGradGradGradGradGradGradGradGradGradGradGradGradGradGradGradGradGrad


 ----------------------------------------------------------------------

 Electric dipole moment (input orientation):
 (Debye = 10**-18 statcoulomb cm , SI units = C m)
                  (au)            (Debye)         (10**-30 SI)
   Tot        0.107088D+01      0.272191D+01      0.907930D+01
   x          0.812227D+00      0.206448D+01      0.688635D+01
   y         -0.697905D+00     -0.177390D+01     -0.591709D+01
   z          0.000000D+00      0.000000D+00      0.000000D+00

 Dipole polarizability, Alpha (input orientation).
 (esu units = cm**3 , SI units = C**2 m**2 J**-1)
 Alpha(0;0):
               (au)            (10**-24 esu)      (10**-40 SI)
   iso        0.879812D+02      0.130375D+02      0.145061D+02
   aniso      0.593415D+02      0.879350D+01      0.978409D+01
   xx         0.102404D+03      0.151747D+02      0.168842D+02
   yx        -0.954710D+01     -0.141473D+01     -0.157410D+01
   yy         0.111210D+03      0.164797D+02      0.183361D+02
   zx         0.000000D+00      0.000000D+00      0.000000D+00
   zy         0.000000D+00      0.000000D+00      0.000000D+00
   zz         0.503290D+02      0.745799D+01      0.829813D+01

 ----------------------------------------------------------------------

 Dipole orientation:
     6         -2.35554555         -2.74140038         -4.62662097
     6         -0.71634156         -0.83368332         -3.81364020
     6         -0.35967789         -0.41859564         -1.23916892
     6         -1.61761154         -1.88258762          0.54093234
     6         -3.26392301         -3.79857643         -0.23049279
     6         -3.54049803         -4.12045638         -2.78305135
    17         -2.89642429         -3.37087885         -7.78903973
    17          0.88682643          1.03209480         -5.97523655
     1          0.91735149          1.06762008         -0.65454943
     1         -1.31609048         -1.53167530          2.53500006
     1         -4.26406090         -4.96254391          1.12312146

 Electric dipole moment (dipole orientation):
 (Debye = 10**-18 statcoulomb cm , SI units = C m)
                  (au)            (Debye)         (10**-30 SI)
   Tot        0.107088D+01      0.272191D+01      0.907930D+01
   x          0.000000D+00      0.000000D+00      0.000000D+00
   y          0.000000D+00      0.000000D+00      0.000000D+00
   z          0.107088D+01      0.272191D+01      0.907930D+01

 Dipole polarizability, Alpha (dipole orientation).
 (esu units = cm**3 , SI units = C**2 m**2 J**-1)
 Alpha(0;0):
               (au)            (10**-24 esu)      (10**-40 SI)
   iso        0.879812D+02      0.130375D+02      0.145061D+02
   aniso      0.593415D+02      0.879350D+01      0.978409D+01
   xx         0.705898D+02      0.104603D+02      0.116387D+02
   yx         0.235796D+02      0.349414D+01      0.388776D+01
   yy         0.777711D+02      0.115245D+02      0.128227D+02
   zx        -0.377352D+01     -0.559178D+00     -0.622169D+00
   zy        -0.439165D+01     -0.650775D+00     -0.724085D+00
   zz         0.115583D+03      0.171276D+02      0.190570D+02

 ----------------------------------------------------------------------
 1\1\GINC-SH02-01N33\Freq\UM062X\6-311++G(d,p)\C6H3Cl2(2)\JLAPIER\10-De
 c-2025\0\\#N Geom=AllCheck Guess=TCheck SCRF=Check GenChk UM062X/6-311
 ++G(d,p) Freq\\Neutral Radical (removed 1) _23\\0,2\C,-3.1034568978,0.
 1449008756,0.\C,-1.909726861,0.8740477645,0.\C,-0.6876902716,0.2058421
 727,0.\C,-0.6388927726,-1.1827743533,0.\C,-1.8197050242,-1.9306297966,
 0.\C,-2.9905655593,-1.2206578598,0.\Cl,-4.6589564436,0.9024217937,0.\C
 l,-1.9289523438,2.6068469647,0.\H,0.2227293803,0.7906953409,0.\H,0.321
 0109113,-1.6847757187,0.\H,-1.8056641178,-3.0133971836,0.\\Version=ES6
 4L-G16RevB.01\State=2-A'\HF=-1150.7085305\S2=0.762668\S2-1=0.\S2A=0.75
 0074\RMSD=8.563e-09\RMSF=7.879e-05\ZeroPoint=0.0691762\Thermal=0.07576
 67\Dipole=0.8122272,-0.6979054,0.\DipoleDeriv=0.8371475,-0.3728232,0.,
 -0.5135425,-0.0002825,0.,0.,0.,0.028893,-0.0633046,0.0317718,0.,0.1297
 213,1.1058641,0.,0.,0.,-0.0097633,-0.0351916,0.1146694,0.,0.0402257,-0
 .2682239,0.,0.,0.,-0.1190532,0.0463625,0.0503495,0.,0.0135521,0.082601
 6,0.,0.,0.,-0.1391024,-0.081165,-0.0065873,0.,-0.0209439,-0.0174486,0.
 ,0.,0.,-0.0841033,-0.1438087,-0.0683877,0.,0.0922304,-0.0670716,0.,0.,
 0.,-0.0606523,-0.6137132,0.2545985,0.,0.2776218,-0.1483778,0.,0.,0.,-0
 .0264205,-0.0437529,-0.0352147,0.,-0.0237906,-0.7758834,0.,0.,0.,-0.04
 2655,0.0248189,-0.0319974,0.,-0.0358706,0.0464379,0.,0.,0.,0.1494499,-
 0.0181088,0.052116,0.,0.0343285,0.0394738,0.,0.,0.,0.1423117,0.0907159
 ,0.0115051,0.,0.0064678,0.0029103,0.,0.,0.,0.1610955\Polar=102.4042685
 ,-9.5471048,111.2104478,0.,0.,50.3289835\Quadrupole=1.5368609,1.945308
 6,-3.4821695,-2.1125176,0.,0.\PG=CS [SG(C6H3Cl2)]\NImag=0\\0.53461636,
 0.00422182,0.61863524,0.,0.,0.11689718,-0.24841676,-0.04694231,0.,0.63
 040360,-0.13384936,-0.14958348,0.,-0.00475980,0.53388497,0.,0.,-0.0664
 0531,0.,0.,0.12151675,-0.05487677,-0.03819383,0.,-0.28553629,0.1202223
 0,0.,0.72026175,0.02732452,0.07096238,0.,0.04200294,-0.15252231,0.,0.0
 4691915,0.70813184,0.,0.,0.00860922,0.,0.,-0.06259043,0.,0.,0.13033183
 ,-0.01389782,-0.03529579,0.,0.03523199,0.02780029,0.,-0.12952446,0.046
 28507,0.,0.72113246,-0.03627734,-0.06521414,0.,0.09439142,-0.02558462,
 0.,-0.03095291,-0.34654389,0.,-0.04040112,0.68164411,0.,0.,-0.00230491
 ,0.,0.,0.00427452,0.,0.,-0.06038848,0.,0.,0.13005058,0.03530406,0.0800
 3529,0.,-0.08450073,-0.00083696,0.,0.04077170,-0.08346597,0.,-0.262702
 65,-0.04905695,0.,0.62180327,0.03420395,-0.02364761,0.,-0.00359441,0.0
 0388310,0.,-0.02533153,-0.02787554,0.,-0.13654595,-0.18131748,0.,-0.03
 144080,0.74954326,0.,0.,0.00548550,0.,0.,-0.00284806,0.,0.,0.00671857,
 0.,0.,-0.06086311,0.,0.,0.12347437,-0.08986857,0.00477121,0.,0.0471844
 8,-0.01597994,0.,-0.02670146,0.03534744,0.,-0.07174557,-0.03251330,0.,
 -0.28586809,0.14255153,0.,0.44834503,0.03202482,-0.35123686,0.,-0.0913
 4814,-0.03731735,0.,0.03494755,-0.06246960,0.,0.03717617,0.07301087,0.
 ,0.10268395,-0.17548396,0.,-0.16183701,0.58514502,0.,0.,-0.05570893,0.
 ,0.,0.01448360,0.,0.,-0.00516612,0.,0.,0.01311738,0.,0.,-0.05114664,0.
 ,0.,0.07439053,-0.15780883,0.04970580,0.,-0.03672507,0.02010561,0.,-0.
 00095858,-0.00583231,0.,-0.00227382,0.00078870,0.,0.00245087,-0.001311
 57,0.,-0.01510885,0.02251658,0.,0.21485137,0.06722378,-0.06106082,0.,-
 0.00546601,0.00210344,0.,-0.00099913,-0.00126620,0.,0.00136790,0.00059
 691,0.,-0.00228858,-0.00331526,0.,0.03214349,-0.01854815,0.,-0.0861673
 2,0.08023770,0.,0.,-0.02143531,0.,0.,0.00495187,0.,0.,0.00370661,0.,0.
 ,-0.00022285,0.,0.,0.00393284,0.,0.,0.00164878,0.,0.,0.00940804,-0.000
 08148,-0.02341788,0.,-0.03841250,0.00400745,0.,0.00269157,0.02816370,0
 .,-0.00347235,-0.00118234,0.,0.00171131,0.00093074,0.,-0.00387938,-0.0
 0046031,0.,-0.00293765,-0.00667559,0.,0.04337157,0.00226147,-0.0367497
 7,0.,0.00125380,-0.18031039,0.,0.00276784,-0.03879776,0.,0.00429027,0.
 00407533,0.,-0.00026830,-0.00189705,0.,-0.00514448,-0.00112554,0.,-0.0
 0097945,0.00092133,0.,-0.00335561,0.25430645,0.,0.,0.00427906,0.,0.,-0
 .02292401,0.,0.,0.00453036,0.,0.,0.00474504,0.,0.,-0.00084990,0.,0.,0.
 00397071,0.,0.,-0.00134736,0.,0.,0.01073783,-0.00250318,0.00272717,0.,
 -0.01898421,-0.01610301,0.,-0.26535519,-0.13163882,0.,0.00591735,0.002
 95116,0.,0.00174621,0.00112496,0.,0.00006841,0.00117162,0.,-0.00113005
 ,-0.00013909,0.,0.00066919,-0.00061887,0.,0.27887360,0.00244209,-0.000
 72823,0.,0.01469727,0.00909095,0.,-0.13465275,-0.14091114,0.,-0.026318
 83,-0.01010981,0.,0.00062302,-0.00526623,0.,0.00131724,-0.00091980,0.,
 0.00116487,0.00022186,0.,0.00105664,0.00067508,0.,0.14058666,0.1476651
 9,0.,0.,0.00558239,0.,0.,0.00254131,0.,0.,-0.03543704,0.,0.,0.00323475
 ,0.,0.,0.00668925,0.,0.,-0.00097420,0.,0.,0.00003732,0.,0.,-0.00270572
 ,0.,0.,0.02519696,0.00090218,-0.00111461,0.,0.00159038,-0.00042599,0.,
 0.00326040,-0.00232943,0.,-0.28446379,0.11947494,0.,-0.01715168,0.0132
 7033,0.,-0.00442167,-0.00244866,0.,-0.00001692,0.00011613,0.,0.0001417
 1,-0.00012915,0.,0.00050457,0.00028449,0.,0.29874927,-0.00027928,-0.00
 137678,0.,-0.00044065,-0.00413945,0.,0.02828185,-0.00926152,0.,0.11835
 169,-0.11988180,0.,-0.01674938,0.01014868,0.,-0.00391809,0.00034374,0.
 ,-0.00003160,0.00018816,0.,0.00093998,-0.00111878,0.,-0.00029467,0.000
 80770,0.,-0.12669676,0.12361203,0.,0.,-0.00114874,0.,0.,0.00725806,0.,
 0.,0.00307696,0.,0.,-0.03688759,0.,0.,0.00411753,0.,0.,0.00667912,0.,0
 .,-0.00039837,0.,0.,0.00007675,0.,0.,-0.00417548,0.,0.,0.02538008,-0.0
 0336919,0.00350312,0.,-0.00183490,-0.00018059,0.,-0.00403266,-0.002776
 29,0.,0.00579866,-0.02722226,0.,-0.05356428,0.00614275,0.,0.00199567,0
 .02557343,0.,-0.00034246,0.00088442,0.,0.00019803,-0.00007752,0.,0.000
 19330,-0.00120069,0.,0.00090556,0.00083691,0.,0.05405227,0.00070354,0.
 00000007,0.,0.00020589,0.00049513,0.,-0.00300855,0.00055374,0.,0.00329
 030,-0.01067549,0.,0.00076469,-0.34477192,0.,0.00326192,-0.01139837,0.
 ,0.00004069,-0.00007898,0.,-0.00000680,0.00002111,0.,0.00023289,-0.000
 52558,0.,-0.00000128,0.00067802,0.,-0.00548329,0.36570227,0.,0.,0.0061
 4984,0.,0.,-0.00025829,0.,0.,0.00660853,0.,0.,0.00524466,0.,0.,-0.0347
 1036,0.,0.,-0.00129423,0.,0.,-0.00028157,0.,0.,-0.00051274,0.,0.,0.000
 01046,0.,0.,-0.00397832,0.,0.,0.02302202\\-0.00016922,-0.00009224,0.,0
 .00014834,-0.00021233,0.,-0.00006760,0.00002218,0.,-0.00001864,-0.0001
 6237,0.,0.00010209,0.00012630,0.,0.00002000,0.00003383,0.,0.00005077,0
 .00001577,0.,-0.00000698,0.00018359,0.,-0.00003214,0.00003091,0.,-0.00
 001400,0.00004342,0.,-0.00001262,0.00001096,0.\\\@


 Everywhere is walking distance if you have the time.
                                    -- Steven Wright
 Job cpu time:       0 days  0 hours 36 minutes 30.5 seconds.
 Elapsed time:       0 days  0 hours  9 minutes 25.5 seconds.
 File lengths (MBytes):  RWF=    142 Int=      0 D2E=      0 Chk=     34 Scr=      1
 Normal termination of Gaussian 16 at Wed Dec 10 11:09:37 2025.
