 Entering Gaussian System, Link 0=g16
 Initial command:
 /share/software/user/restricted/gaussian/g16.B01/l1.exe "/home/users/jlapier/Chloroaromatics/Gau-1440.inp" -scrdir="/home/users/jlapier/Chloroaromatics/"
 Entering Link 1 = /share/software/user/restricted/gaussian/g16.B01/l1.exe PID=      1441.
  
 Copyright (c) 1988-2017, Gaussian, Inc.  All Rights Reserved.
  
 This is part of the Gaussian(R) 16 program.  It is based on
 the Gaussian(R) 09 system (copyright 2009, Gaussian, Inc.),
 the Gaussian(R) 03 system (copyright 2003, Gaussian, Inc.),
 the Gaussian(R) 98 system (copyright 1998, Gaussian, Inc.),
 the Gaussian(R) 94 system (copyright 1995, Gaussian, Inc.),
 the Gaussian 92(TM) system (copyright 1992, Gaussian, Inc.),
 the Gaussian 90(TM) system (copyright 1990, Gaussian, Inc.),
 the Gaussian 88(TM) system (copyright 1988, Gaussian, Inc.),
 the Gaussian 86(TM) system (copyright 1986, Carnegie Mellon
 University), and the Gaussian 82(TM) system (copyright 1983,
 Carnegie Mellon University). Gaussian is a federally registered
 trademark of Gaussian, Inc.
  
 This software contains proprietary and confidential information,
 including trade secrets, belonging to Gaussian, Inc.
  
 This software is provided under written license and may be
 used, copied, transmitted, or stored only in accord with that
 written license.
  
 The following legend is applicable only to US Government
 contracts under FAR:
  
                    RESTRICTED RIGHTS LEGEND
  
 Use, reproduction and disclosure by the US Government is
 subject to restrictions as set forth in subparagraphs (a)
 and (c) of the Commercial Computer Software - Restricted
 Rights clause in FAR 52.227-19.
  
 Gaussian, Inc.
 340 Quinnipiac St., Bldg. 40, Wallingford CT 06492
  
  
 ---------------------------------------------------------------
 Warning -- This program may not be used in any manner that
 competes with the business of Gaussian, Inc. or will provide
 assistance to any competitor of Gaussian, Inc.  The licensee
 of this program is prohibited from giving any competitor of
 Gaussian, Inc. access to this program.  By using this program,
 the user acknowledges that Gaussian, Inc. is engaged in the
 business of creating and licensing software in the field of
 computational chemistry and represents and warrants to the
 licensee that it is not a competitor of Gaussian, Inc. and that
 it will not use this program in any manner prohibited above.
 ---------------------------------------------------------------
  

 Cite this work as:
 Gaussian 16, Revision B.01,
 M. J. Frisch, G. W. Trucks, H. B. Schlegel, G. E. Scuseria, 
 M. A. Robb, J. R. Cheeseman, G. Scalmani, V. Barone, 
 G. A. Petersson, H. Nakatsuji, X. Li, M. Caricato, A. V. Marenich, 
 J. Bloino, B. G. Janesko, R. Gomperts, B. Mennucci, H. P. Hratchian, 
 J. V. Ortiz, A. F. Izmaylov, J. L. Sonnenberg, D. Williams-Young, 
 F. Ding, F. Lipparini, F. Egidi, J. Goings, B. Peng, A. Petrone, 
 T. Henderson, D. Ranasinghe, V. G. Zakrzewski, J. Gao, N. Rega, 
 G. Zheng, W. Liang, M. Hada, M. Ehara, K. Toyota, R. Fukuda, 
 J. Hasegawa, M. Ishida, T. Nakajima, Y. Honda, O. Kitao, H. Nakai, 
 T. Vreven, K. Throssell, J. A. Montgomery, Jr., J. E. Peralta, 
 F. Ogliaro, M. J. Bearpark, J. J. Heyd, E. N. Brothers, K. N. Kudin, 
 V. N. Staroverov, T. A. Keith, R. Kobayashi, J. Normand, 
 K. Raghavachari, A. P. Rendell, J. C. Burant, S. S. Iyengar, 
 J. Tomasi, M. Cossi, J. M. Millam, M. Klene, C. Adamo, R. Cammi, 
 J. W. Ochterski, R. L. Martin, K. Morokuma, O. Farkas, 
 J. B. Foresman, and D. J. Fox, Gaussian, Inc., Wallingford CT, 2016.
 
 ******************************************
 Gaussian 16:  ES64L-G16RevB.01 20-Dec-2017
                10-Dec-2025 
 ******************************************
 %mem=8GB
 %nprocshare=4
 Will use up to    4 processors via shared memory.
 %oldchk=geometry_chks/12345-1_345-ClBzNeutralRadical.chk
 %chk=frequency_chks/12345-1_345-ClBzNeutralRadical_Freq.chk
 Copying data from "geometry_chks/12345-1_345-ClBzNeutralRadical.chk" to current chk file "frequency_chks/12345-1_345-ClBzNeutralRadical_Freq.chk"
 IOpt=  2 FromEx=T IUOpen= 4 IOptOp= 5 NList=   0 IFRang= 0 IUIn= 4 IUOut= 2.
 -------------------------------------------------------
 # opt freq 6-311++g(d,p) guess=read geom=allcheck m062x
 -------------------------------------------------------
 1/18=20,19=15,26=3,29=7,38=1/1,3;
 2/9=110,12=2,40=1/2;
 3/5=4,6=6,7=1111,11=2,14=-4,25=1,30=1,71=1,74=-55,116=-2/1,2,3;
 4/5=1/1;
 5/5=2,38=6/2;
 6/7=2,8=2,9=2,10=2,28=1/1;
 7//1,2,3,16;
 1/18=20,19=15,26=3/3(2);
 2/9=110/2;
 99//99;
 2/9=110/2;
 3/5=4,6=6,7=1111,11=2,14=-2,25=1,30=1,71=1,74=-55/1,2,3;
 4/5=5,16=3,69=1/1;
 5/5=2,38=5/2;
 7//1,2,3,16;
 1/18=20,19=15,26=3/3(-5);
 2/9=110/2;
 6/7=2,8=2,9=2,10=2,19=2,28=1/1;
 99/9=1/99;
 Structure from the checkpoint file:  "frequency_chks/12345-1_345-ClBzNeutralRadical_Freq.chk"
 ---------------------------------
 Neutral Radical (removed 2) 1_345
 ---------------------------------
 Charge =  0 Multiplicity = 2
 Redundant internal coordinates found in file.  (old form).
 C,0,-3.1073471208,0.092658183,0.
 C,0,-1.9999250756,0.9056808925,0.
 C,0,-0.7493942394,0.2299698363,0.
 C,0,-0.7389684821,-1.1856986748,0.
 C,0,-1.9245847962,-1.9429534037,0.
 C,0,-3.1715993767,-1.2802268385,0.
 Cl,0,-4.6260046843,-2.1204289597,0.
 Cl,0,-2.1329199325,2.578498313,0.
 Cl,0,0.6862210483,1.1091932368,0.
 Cl,0,0.7337731044,-2.0214377191,0.
 H,0,-1.8820204451,-3.0429548659,0.
 Recover connectivity data from disk.

 GradGradGradGradGradGradGradGradGradGradGradGradGradGradGradGradGradGrad
 Berny optimization.
 Initialization pass.
                           ----------------------------
                           !    Initial Parameters    !
                           ! (Angstroms and Degrees)  !
 --------------------------                            --------------------------
 ! Name  Definition              Value          Derivative Info.                !
 --------------------------------------------------------------------------------
 ! R1    R(1,2)                  1.3738         estimate D2E/DX2                !
 ! R2    R(1,6)                  1.3744         estimate D2E/DX2                !
 ! R3    R(2,3)                  1.4214         estimate D2E/DX2                !
 ! R4    R(2,8)                  1.6781         estimate D2E/DX2                !
 ! R5    R(3,4)                  1.4157         estimate D2E/DX2                !
 ! R6    R(3,9)                  1.6835         estimate D2E/DX2                !
 ! R7    R(4,5)                  1.4068         estimate D2E/DX2                !
 ! R8    R(4,10)                 1.6933         estimate D2E/DX2                !
 ! R9    R(5,6)                  1.4122         estimate D2E/DX2                !
 ! R10   R(5,11)                 1.1008         estimate D2E/DX2                !
 ! R11   R(6,7)                  1.6797         estimate D2E/DX2                !
 ! A1    A(2,1,6)              128.9641         estimate D2E/DX2                !
 ! A2    A(1,2,3)              115.3314         estimate D2E/DX2                !
 ! A3    A(1,2,8)              121.7389         estimate D2E/DX2                !
 ! A4    A(3,2,8)              122.9298         estimate D2E/DX2                !
 ! A5    A(2,3,4)              118.806          estimate D2E/DX2                !
 ! A6    A(2,3,9)              120.1311         estimate D2E/DX2                !
 ! A7    A(4,3,9)              121.0629         estimate D2E/DX2                !
 ! A8    A(3,4,5)              122.1445         estimate D2E/DX2                !
 ! A9    A(3,4,10)             119.9956         estimate D2E/DX2                !
 ! A10   A(5,4,10)             117.8599         estimate D2E/DX2                !
 ! A11   A(4,5,6)              119.4451         estimate D2E/DX2                !
 ! A12   A(4,5,11)             120.3505         estimate D2E/DX2                !
 ! A13   A(6,5,11)             120.2044         estimate D2E/DX2                !
 ! A14   A(1,6,5)              115.3089         estimate D2E/DX2                !
 ! A15   A(1,6,7)              122.6943         estimate D2E/DX2                !
 ! A16   A(5,6,7)              121.9968         estimate D2E/DX2                !
 ! D1    D(6,1,2,3)              0.0            estimate D2E/DX2                !
 ! D2    D(6,1,2,8)            180.0            estimate D2E/DX2                !
 ! D3    D(2,1,6,5)              0.0            estimate D2E/DX2                !
 ! D4    D(2,1,6,7)            180.0            estimate D2E/DX2                !
 ! D5    D(1,2,3,4)              0.0            estimate D2E/DX2                !
 ! D6    D(1,2,3,9)            180.0            estimate D2E/DX2                !
 ! D7    D(8,2,3,4)            180.0            estimate D2E/DX2                !
 ! D8    D(8,2,3,9)              0.0            estimate D2E/DX2                !
 ! D9    D(2,3,4,5)              0.0            estimate D2E/DX2                !
 ! D10   D(2,3,4,10)           180.0            estimate D2E/DX2                !
 ! D11   D(9,3,4,5)            180.0            estimate D2E/DX2                !
 ! D12   D(9,3,4,10)             0.0            estimate D2E/DX2                !
 ! D13   D(3,4,5,6)              0.0            estimate D2E/DX2                !
 ! D14   D(3,4,5,11)           180.0            estimate D2E/DX2                !
 ! D15   D(10,4,5,6)           180.0            estimate D2E/DX2                !
 ! D16   D(10,4,5,11)            0.0            estimate D2E/DX2                !
 ! D17   D(4,5,6,1)              0.0            estimate D2E/DX2                !
 ! D18   D(4,5,6,7)            180.0            estimate D2E/DX2                !
 ! D19   D(11,5,6,1)           180.0            estimate D2E/DX2                !
 ! D20   D(11,5,6,7)             0.0            estimate D2E/DX2                !
 --------------------------------------------------------------------------------
 Trust Radius=3.00D-01 FncErr=1.00D-07 GrdErr=1.00D-06 EigMax=2.50D+02 EigMin=1.00D-04
 Number of steps in this run=     57 maximum allowed number of steps=    100.
 GradGradGradGradGradGradGradGradGradGradGradGradGradGradGradGradGradGrad

                          Input orientation:                          
 ---------------------------------------------------------------------
 Center     Atomic      Atomic             Coordinates (Angstroms)
 Number     Number       Type             X           Y           Z
 ---------------------------------------------------------------------
      1          6           0       -3.107347    0.092658   -0.000000
      2          6           0       -1.999925    0.905681    0.000000
      3          6           0       -0.749394    0.229970    0.000000
      4          6           0       -0.738968   -1.185699    0.000000
      5          6           0       -1.924585   -1.942953   -0.000000
      6          6           0       -3.171599   -1.280227   -0.000000
      7         17           0       -4.626005   -2.120429   -0.000000
      8         17           0       -2.132920    2.578498    0.000000
      9         17           0        0.686221    1.109193    0.000000
     10         17           0        0.733773   -2.021438    0.000000
     11          1           0       -1.882020   -3.042955   -0.000000
 ---------------------------------------------------------------------
                    Distance matrix (angstroms):
                    1          2          3          4          5
     1  C    0.000000
     2  C    1.373823   0.000000
     3  C    2.361948   1.421412   0.000000
     4  C    2.691359   2.442106   1.415707   0.000000
     5  C    2.354281   2.849630   2.470358   1.406812   0.000000
     6  C    1.374388   2.480124   2.854430   2.434467   1.412180
     7  Cl   2.684041   4.006699   4.533485   3.997846   2.707243
     8  Cl   2.670002   1.678096   2.725753   4.014010   4.526249
     9  Cl   3.927404   2.693845   1.683456   2.701424   4.016454
    10  Cl   4.384473   4.005138   2.696038   1.693348   2.659516
    11  H    3.366526   3.950396   3.463362   2.180818   1.100825
                    6          7          8          9         10
     6  C    0.000000
     7  Cl   1.679653   0.000000
     8  Cl   3.996075   5.319341   0.000000
     9  Cl   4.537853   6.216929   3.179059   0.000000
    10  Cl   3.975088   5.360692   5.420087   3.130992   0.000000
    11  H    2.184084   2.894910   5.627050   4.882233   2.808180
                   11
    11  H    0.000000
 Stoichiometry    C6HCl4(2)
 Framework group  CS[SG(C6HCl4)]
 Deg. of freedom    19
 Full point group                 CS      NOp   2
 Largest Abelian subgroup         CS      NOp   2
 Largest concise Abelian subgroup C1      NOp   1
                         Standard orientation:                         
 ---------------------------------------------------------------------
 Center     Atomic      Atomic             Coordinates (Angstroms)
 Number     Number       Type             X           Y           Z
 ---------------------------------------------------------------------
      1          6           0       -1.158270   -1.106563   -0.000000
      2          6           0       -1.244191    0.264571    0.000000
      3          6           0        0.000000    0.951885    0.000000
      4          6           0        1.196948    0.195882    0.000000
      5          6           0        1.193697   -1.210927   -0.000000
      6          6           0       -0.037668   -1.902297   -0.000000
      7         17           0       -0.116323   -3.580107   -0.000000
      8         17           0       -2.723751    1.056347    0.000000
      9         17           0        0.035667    2.634963    0.000000
     10         17           0        2.695850    0.983740    0.000000
     11          1           0        2.142367   -1.769354   -0.000000
 ---------------------------------------------------------------------
 Rotational constants (GHZ):           0.8600547           0.5911438           0.3503422
 Standard basis: 6-311++G(d,p) (5D, 7F)
 There are   200 symmetry adapted cartesian basis functions of A'  symmetry.
 There are    69 symmetry adapted cartesian basis functions of A"  symmetry.
 There are   190 symmetry adapted basis functions of A'  symmetry.
 There are    69 symmetry adapted basis functions of A"  symmetry.
   259 basis functions,   437 primitive gaussians,   269 cartesian basis functions
    53 alpha electrons       52 beta electrons
       nuclear repulsion energy       819.3247123467 Hartrees.
 NAtoms=   11 NActive=   11 NUniq=   11 SFac= 1.00D+00 NAtFMM=   60 NAOKFM=F Big=F
 Integral buffers will be    131072 words long.
 Raffenetti 2 integral format.
 Two-electron integral symmetry is turned on.
 One-electron integrals computed using PRISM.
 NBasis=   259 RedAO= T EigKep=  1.19D-06  NBF=   190    69
 NBsUse=   258 1.00D-06 EigRej=  8.22D-07 NBFU=   189    69
 Initial guess from the checkpoint file:  "frequency_chks/12345-1_345-ClBzNeutralRadical_Freq.chk"
 B after Tr=     0.000000    0.000000   -0.000000
         Rot=    1.000000   -0.000000    0.000000    0.000000 Ang=   0.00 deg.
 Initial guess orbital symmetries:
 Alpha Orbitals:
       Occupied  (A') (A') (A') (A') (A') (A') (A') (A') (A') (A')
                 (A') (A') (A') (A") (A') (A') (A") (A") (A") (A')
                 (A') (A') (A') (A") (A') (A") (A") (A") (A") (A')
                 (A') (A') (A') (A") (A') (A') (A') (A') (A') (A')
                 (A') (A') (A') (A') (A') (A') (A') (A') (A') (A')
                 (A') (A') (A')
       Virtual   (A') (A') (A') (A') (A') (A') (A') (A') (A') (A')
                 (A') (A') (A') (A') (A') (A') (A') (A') (A') (A')
                 (A') (A') (A') (A') (A') (A') (A') (A') (A') (A')
                 (A') (A') (A') (A') (A') (A') (A') (A') (A') (A')
                 (A') (A') (A') (A') (A') (A') (A') (A') (A') (A')
                 (A') (A') (A') (A') (A') (A') (A') (A') (A') (A')
                 (A') (A') (A') (A') (A') (A') (A') (A') (A') (A')
                 (A') (A') (A') (A') (A') (A') (A') (A') (A') (A')
                 (A') (A') (A') (A') (A') (A') (A') (A') (A') (A')
                 (A') (A') (A') (A') (A') (A') (A') (A') (A') (A')
                 (A') (A') (A') (A') (A') (A') (A') (A') (A') (A')
                 (A') (A') (A') (A') (A') (A') (A') (A') (A') (A')
                 (A') (A') (A') (A') (A') (A') (A') (A') (A') (A')
                 (A') (A') (A') (A') (A') (A') (A') (A') (A') (A')
                 (A') (A') (A') (A') (A') (A') (A") (A") (A") (A")
                 (A") (A") (A") (A") (A") (A") (A") (A") (A") (A")
                 (A") (A") (A") (A") (A") (A") (A") (A") (A") (A")
                 (A") (A") (A") (A") (A") (A") (A") (A") (A") (A")
                 (A") (A") (A") (A") (A") (A") (A") (A") (A") (A")
                 (A") (A") (A") (A") (A") (A") (A") (A") (A") (A")
                 (A") (A") (A") (A") (A")
 Beta  Orbitals:
       Occupied  (A') (A') (A') (A') (A') (A') (A') (A') (A') (A')
                 (A') (A') (A') (A") (A') (A") (A') (A") (A") (A')
                 (A') (A') (A') (A") (A") (A") (A') (A") (A") (A')
                 (A') (A') (A') (A") (A') (A') (A') (A') (A') (A')
                 (A') (A') (A') (A') (A') (A') (A') (A') (A') (A')
                 (A') (A')
       Virtual   (A') (A') (A') (A') (A') (A') (A') (A') (A') (A')
                 (A') (A') (A') (A') (A') (A') (A') (A') (A') (A')
                 (A') (A') (A') (A') (A') (A') (A') (A') (A') (A')
                 (A') (A') (A') (A') (A') (A') (A') (A') (A') (A')
                 (A') (A') (A') (A') (A') (A') (A') (A') (A') (A')
                 (A') (A') (A') (A') (A') (A') (A') (A') (A') (A')
                 (A') (A') (A') (A') (A') (A') (A') (A') (A') (A')
                 (A') (A') (A') (A') (A') (A') (A') (A') (A') (A')
                 (A') (A') (A') (A') (A') (A') (A') (A') (A') (A')
                 (A') (A') (A') (A') (A') (A') (A') (A') (A') (A')
                 (A') (A') (A') (A') (A') (A') (A') (A') (A') (A')
                 (A') (A') (A') (A') (A') (A') (A') (A') (A') (A')
                 (A') (A') (A') (A') (A') (A') (A') (A') (A') (A')
                 (A') (A') (A') (A') (A') (A') (A') (A') (A') (A')
                 (A') (A') (A') (A') (A') (A') (A') (A") (A") (A")
                 (A") (A") (A") (A") (A") (A") (A") (A") (A") (A")
                 (A") (A") (A") (A") (A") (A") (A") (A") (A") (A")
                 (A") (A") (A") (A") (A") (A") (A") (A") (A") (A")
                 (A") (A") (A") (A") (A") (A") (A") (A") (A") (A")
                 (A") (A") (A") (A") (A") (A") (A") (A") (A") (A")
                 (A") (A") (A") (A") (A") (A")
 Initial guess <Sx>= 0.0000 <Sy>= 0.0000 <Sz>= 0.5000 <S**2>= 0.7500 S= 0.5000
 Keep R1 and R2 ints in memory in symmetry-blocked form, NReq=892001928.
 Requested convergence on RMS density matrix=1.00D-08 within 128 cycles.
 Requested convergence on MAX density matrix=1.00D-06.
 Requested convergence on             energy=1.00D-06.
 No special actions if energy rises.
 EnCoef did     5 forward-backward iterations
 EnCoef did     6 forward-backward iterations
 EnCoef did     5 forward-backward iterations
 EnCoef did     6 forward-backward iterations
 EnCoef did     2 forward-backward iterations
 EnCoef did     4 forward-backward iterations
 SCF Done:  E(UM062X) =  -2069.89262751     A.U. after   32 cycles
            NFock= 32  Conv=0.62D-08     -V/T= 2.0022
 <Sx>= 0.0000 <Sy>= 0.0000 <Sz>= 0.5000 <S**2>= 0.7637 S= 0.5068
 <L.S>=  0.00000000000    
 Annihilation of the first spin contaminant:
 S**2 before annihilation     0.7637,   after     0.7501

 **********************************************************************

            Population analysis using the SCF Density.

 **********************************************************************

 Orbital symmetries:
 Alpha Orbitals:
       Occupied  (A') (A') (A') (A') (A') (A') (A') (A') (A') (A')
                 (A') (A') (A') (A') (A') (A') (A') (A') (A") (A')
                 (A") (A') (A") (A') (A") (A') (A') (A') (A') (A')
                 (A') (A') (A') (A') (A') (A') (A') (A') (A') (A")
                 (A') (A') (A") (A") (A") (A') (A') (A') (A') (A")
                 (A') (A") (A")
       Virtual   (A") (A") (A') (A') (A') (A') (A') (A') (A") (A')
                 (A') (A") (A") (A') (A') (A') (A") (A') (A') (A")
                 (A") (A') (A') (A') (A') (A") (A') (A") (A') (A')
                 (A") (A") (A') (A') (A') (A') (A") (A') (A') (A')
                 (A') (A') (A') (A') (A') (A') (A') (A') (A') (A')
                 (A') (A') (A') (A') (A") (A') (A") (A') (A") (A')
                 (A') (A') (A") (A') (A') (A") (A') (A') (A") (A")
                 (A') (A") (A") (A') (A') (A') (A") (A') (A') (A')
                 (A") (A') (A') (A") (A') (A") (A') (A') (A') (A")
                 (A') (A") (A") (A") (A') (A') (A') (A') (A') (A")
                 (A') (A') (A') (A") (A') (A') (A') (A') (A') (A")
                 (A') (A') (A") (A') (A') (A') (A") (A') (A") (A")
                 (A') (A') (A') (A') (A') (A") (A') (A') (A') (A")
                 (A') (A") (A') (A") (A") (A') (A") (A') (A') (A')
                 (A') (A") (A') (A") (A") (A") (A') (A") (A') (A')
                 (A') (A') (A') (A') (A') (A') (A') (A') (A") (A')
                 (A') (A") (A") (A") (A") (A') (A') (A") (A') (A')
                 (A') (A') (A') (A') (A') (A') (A') (A') (A') (A')
                 (A') (A') (A') (A') (A') (A') (A') (A') (A') (A")
                 (A") (A") (A") (A') (A') (A') (A') (A') (A') (A')
                 (A') (A') (A') (A') (A')
 Beta  Orbitals:
       Occupied  (A') (A') (A') (A') (A') (A') (A') (A') (A') (A')
                 (A') (A') (A') (A') (A') (A') (A') (A') (A") (A')
                 (A") (A') (A") (A') (A") (A') (A') (A') (A') (A')
                 (A') (A') (A') (A') (A') (A') (A') (A') (A') (A")
                 (A') (A') (A") (A") (A") (A') (A') (A') (A') (A")
                 (A") (A")
       Virtual   (A') (A") (A") (A') (A') (A') (A') (A') (A') (A")
                 (A') (A') (A") (A") (A') (A') (A') (A") (A') (A')
                 (A") (A") (A') (A') (A') (A') (A") (A') (A") (A')
                 (A') (A") (A") (A') (A') (A') (A') (A") (A') (A')
                 (A') (A') (A') (A') (A') (A') (A') (A') (A') (A')
                 (A') (A') (A') (A') (A') (A') (A") (A") (A') (A")
                 (A') (A') (A') (A") (A') (A') (A") (A') (A') (A")
                 (A') (A") (A") (A") (A') (A') (A') (A") (A') (A')
                 (A') (A") (A') (A') (A") (A') (A") (A') (A') (A')
                 (A') (A") (A") (A") (A") (A') (A') (A') (A') (A')
                 (A') (A") (A') (A') (A") (A') (A') (A') (A') (A')
                 (A") (A') (A') (A') (A") (A') (A') (A") (A') (A")
                 (A") (A') (A') (A') (A') (A") (A') (A') (A') (A')
                 (A") (A') (A") (A') (A") (A") (A') (A") (A') (A')
                 (A') (A') (A") (A') (A") (A") (A') (A") (A") (A')
                 (A') (A') (A') (A') (A') (A') (A') (A') (A') (A")
                 (A') (A') (A") (A") (A") (A") (A') (A") (A') (A')
                 (A') (A') (A') (A') (A') (A') (A') (A') (A') (A')
                 (A') (A') (A') (A') (A') (A') (A') (A') (A') (A')
                 (A") (A") (A") (A") (A') (A') (A') (A') (A') (A')
                 (A') (A') (A') (A') (A') (A')
 The electronic state is 2-A'.
 Alpha  occ. eigenvalues -- -102.70738-102.70535-102.70446-102.70139 -10.65149
 Alpha  occ. eigenvalues --  -10.65083 -10.64717 -10.64600 -10.61482 -10.60000
 Alpha  occ. eigenvalues --   -9.85067  -9.84872  -9.84786  -9.84490  -7.57635
 Alpha  occ. eigenvalues --   -7.57433  -7.57323  -7.57016  -7.56879  -7.56869
 Alpha  occ. eigenvalues --   -7.56685  -7.56681  -7.56622  -7.56588  -7.56308
 Alpha  occ. eigenvalues --   -7.56294  -1.07230  -1.02711  -1.01833  -0.98415
 Alpha  occ. eigenvalues --   -0.93960  -0.85662  -0.83562  -0.72626  -0.70343
 Alpha  occ. eigenvalues --   -0.61836  -0.60577  -0.56537  -0.54501  -0.53989
 Alpha  occ. eigenvalues --   -0.51828  -0.49647  -0.47677  -0.46594  -0.43024
 Alpha  occ. eigenvalues --   -0.42319  -0.41292  -0.40708  -0.39285  -0.39175
 Alpha  occ. eigenvalues --   -0.35074  -0.32976  -0.31293
 Alpha virt. eigenvalues --   -0.03047  -0.02199   0.00059   0.01087   0.02657
 Alpha virt. eigenvalues --    0.02954   0.03984   0.04562   0.04776   0.05920
 Alpha virt. eigenvalues --    0.06604   0.07094   0.07804   0.08198   0.08654
 Alpha virt. eigenvalues --    0.09100   0.10091   0.10861   0.11033   0.11085
 Alpha virt. eigenvalues --    0.11579   0.11715   0.12625   0.13430   0.13551
 Alpha virt. eigenvalues --    0.14856   0.15075   0.15284   0.16166   0.17005
 Alpha virt. eigenvalues --    0.17033   0.17365   0.18149   0.18793   0.19789
 Alpha virt. eigenvalues --    0.19992   0.21530   0.22093   0.22771   0.23609
 Alpha virt. eigenvalues --    0.23911   0.24660   0.25463   0.26492   0.27171
 Alpha virt. eigenvalues --    0.28344   0.29521   0.29727   0.30044   0.30542
 Alpha virt. eigenvalues --    0.32539   0.34276   0.41023   0.42239   0.44389
 Alpha virt. eigenvalues --    0.44843   0.47002   0.47100   0.47497   0.47944
 Alpha virt. eigenvalues --    0.49232   0.49394   0.50489   0.51497   0.52017
 Alpha virt. eigenvalues --    0.53920   0.54463   0.57932   0.59314   0.60470
 Alpha virt. eigenvalues --    0.60872   0.62114   0.63579   0.64379   0.65623
 Alpha virt. eigenvalues --    0.66153   0.68049   0.69217   0.70384   0.73520
 Alpha virt. eigenvalues --    0.77850   0.78488   0.83006   0.85514   0.86573
 Alpha virt. eigenvalues --    0.86801   0.86991   0.88071   0.88711   0.89010
 Alpha virt. eigenvalues --    0.89022   0.90710   0.90930   0.91941   0.92725
 Alpha virt. eigenvalues --    0.93660   0.95680   0.96026   0.97529   0.98211
 Alpha virt. eigenvalues --    0.98363   0.98796   0.99905   1.01146   1.03308
 Alpha virt. eigenvalues --    1.04983   1.08818   1.10352   1.17566   1.18409
 Alpha virt. eigenvalues --    1.22202   1.24584   1.24968   1.26151   1.27894
 Alpha virt. eigenvalues --    1.28773   1.32707   1.33221   1.34236   1.36227
 Alpha virt. eigenvalues --    1.38154   1.46343   1.48958   1.54134   1.61754
 Alpha virt. eigenvalues --    1.62471   1.70474   1.74528   1.78130   1.78320
 Alpha virt. eigenvalues --    1.80287   1.84952   1.85290   1.88721   1.92821
 Alpha virt. eigenvalues --    1.97386   2.05901   2.06896   2.10595   2.19253
 Alpha virt. eigenvalues --    2.21500   2.25910   2.26304   2.28367   2.28575
 Alpha virt. eigenvalues --    2.29680   2.29736   2.33493   2.39643   2.42608
 Alpha virt. eigenvalues --    2.43523   2.45367   2.49630   2.51023   2.56869
 Alpha virt. eigenvalues --    2.58795   2.60529   2.64093   2.65592   2.66929
 Alpha virt. eigenvalues --    2.74844   2.78722   2.81379   2.89111   2.91637
 Alpha virt. eigenvalues --    2.93968   3.08575   3.08660   3.12465   3.20898
 Alpha virt. eigenvalues --    3.26854   3.30023   3.36904   3.51053   3.68839
 Alpha virt. eigenvalues --    3.78217   3.94821   4.04839   4.74544   9.91340
 Alpha virt. eigenvalues --    9.98177   9.99010  10.00974  23.35734  23.82221
 Alpha virt. eigenvalues --   23.89088  23.96361  24.04937  24.14501  25.86722
 Alpha virt. eigenvalues --   25.91504  25.91636  25.98514  26.15403  26.18200
 Alpha virt. eigenvalues --   26.21905  26.37640  26.51373  26.69513  26.75337
 Alpha virt. eigenvalues --   26.92400 216.00828 216.08479 216.09558 216.11932
  Beta  occ. eigenvalues -- -102.70704-102.70507-102.70425-102.70145 -10.65175
  Beta  occ. eigenvalues --  -10.65031 -10.64749 -10.64639 -10.60488 -10.59934
  Beta  occ. eigenvalues --   -9.85053  -9.84860  -9.84778  -9.84492  -7.57553
  Beta  occ. eigenvalues --   -7.57360  -7.57290  -7.57015  -7.56886  -7.56836
  Beta  occ. eigenvalues --   -7.56692  -7.56659  -7.56606  -7.56567  -7.56329
  Beta  occ. eigenvalues --   -7.56295  -1.06842  -1.02421  -1.01646  -0.98287
  Beta  occ. eigenvalues --   -0.93366  -0.84816  -0.82530  -0.72161  -0.69200
  Beta  occ. eigenvalues --   -0.61246  -0.59721  -0.55927  -0.54250  -0.53625
  Beta  occ. eigenvalues --   -0.51190  -0.49239  -0.47554  -0.46564  -0.42996
  Beta  occ. eigenvalues --   -0.41852  -0.41072  -0.40517  -0.38910  -0.38790
  Beta  occ. eigenvalues --   -0.32103  -0.30979
  Beta virt. eigenvalues --   -0.09654  -0.03084  -0.01188   0.00101   0.00943
  Beta virt. eigenvalues --    0.02468   0.03209   0.03862   0.04424   0.04550
  Beta virt. eigenvalues --    0.05121   0.06680   0.07056   0.07689   0.08140
  Beta virt. eigenvalues --    0.08665   0.09144   0.10075   0.10532   0.10888
  Beta virt. eigenvalues --    0.11171   0.11259   0.11801   0.12665   0.13391
  Beta virt. eigenvalues --    0.13837   0.14655   0.14933   0.15845   0.16004
  Beta virt. eigenvalues --    0.16993   0.17002   0.17417   0.18236   0.18587
  Beta virt. eigenvalues --    0.19494   0.19766   0.21410   0.22282   0.22745
  Beta virt. eigenvalues --    0.23519   0.23715   0.24689   0.25435   0.26430
  Beta virt. eigenvalues --    0.27375   0.27870   0.29443   0.29722   0.30178
  Beta virt. eigenvalues --    0.30538   0.32917   0.34851   0.40960   0.42316
  Beta virt. eigenvalues --    0.43833   0.44419   0.47079   0.47187   0.47547
  Beta virt. eigenvalues --    0.48086   0.49270   0.49409   0.50507   0.51325
  Beta virt. eigenvalues --    0.52099   0.54084   0.54175   0.55591   0.59644
  Beta virt. eigenvalues --    0.59742   0.60538   0.62006   0.63545   0.65567
  Beta virt. eigenvalues --    0.65951   0.66381   0.67886   0.68888   0.71380
  Beta virt. eigenvalues --    0.73257   0.78008   0.78657   0.83034   0.85570
  Beta virt. eigenvalues --    0.86585   0.86920   0.86973   0.88126   0.88524
  Beta virt. eigenvalues --    0.89023   0.89086   0.90760   0.90938   0.92004
  Beta virt. eigenvalues --    0.92884   0.93659   0.95682   0.95972   0.97602
  Beta virt. eigenvalues --    0.98380   0.98433   0.98834   0.99931   1.01682
  Beta virt. eigenvalues --    1.03113   1.04749   1.08931   1.10845   1.17355
  Beta virt. eigenvalues --    1.18878   1.21532   1.24381   1.26074   1.27015
  Beta virt. eigenvalues --    1.28110   1.28419   1.33018   1.33226   1.34601
  Beta virt. eigenvalues --    1.36552   1.37758   1.47476   1.49563   1.55671
  Beta virt. eigenvalues --    1.62503   1.63282   1.70723   1.74867   1.78875
  Beta virt. eigenvalues --    1.78933   1.80644   1.85079   1.85883   1.89094
  Beta virt. eigenvalues --    1.93628   1.97802   2.06073   2.07299   2.11292
  Beta virt. eigenvalues --    2.19741   2.21773   2.25928   2.27031   2.28568
  Beta virt. eigenvalues --    2.28591   2.29661   2.29939   2.33535   2.39584
  Beta virt. eigenvalues --    2.42748   2.44098   2.45361   2.50473   2.51174
  Beta virt. eigenvalues --    2.57128   2.58934   2.60674   2.64634   2.65734
  Beta virt. eigenvalues --    2.67300   2.75005   2.79225   2.81364   2.89288
  Beta virt. eigenvalues --    2.91457   2.96431   3.08706   3.10057   3.12733
  Beta virt. eigenvalues --    3.20909   3.27061   3.30362   3.37062   3.51532
  Beta virt. eigenvalues --    3.69267   3.78576   3.95220   4.05138   4.74779
  Beta virt. eigenvalues --    9.91349   9.98180   9.99013  10.00979  23.35856
  Beta virt. eigenvalues --   23.82332  23.89108  23.96359  24.05031  24.15306
  Beta virt. eigenvalues --   25.86734  25.91493  25.91622  25.98525  26.15450
  Beta virt. eigenvalues --   26.18246  26.21954  26.37659  26.51459  26.69687
  Beta virt. eigenvalues --   26.75463  26.92490 216.00855 216.08521 216.09583
  Beta virt. eigenvalues --  216.11959
          Condensed to atoms (all electrons):
               1          2          3          4          5          6
     1  C   26.886999   4.832230 -11.807739  -4.327163  -8.010412  -0.396515
     2  C    4.832230  24.993040  -1.364672  -9.705741  -5.895202  -4.836981
     3  C  -11.807739  -1.364672  32.147736   0.391911 -10.151230  -3.049810
     4  C   -4.327163  -9.705741   0.391911  24.027979   0.409210  -4.212710
     5  C   -8.010412  -5.895202 -10.151230   0.409210  30.652366  -1.704414
     6  C   -0.396515  -4.836981  -3.049810  -4.212710  -1.704414  21.877172
     7  Cl  -0.298539   0.074158   0.237355   0.038519   0.403933  -1.317746
     8  Cl  -0.373811  -1.638038   0.678396   0.288063   0.472833  -0.219230
     9  Cl  -0.177083  -0.432419  -1.550147   0.626330   0.341613   0.480100
    10  Cl   0.396344   0.517540   0.622511  -1.699715  -0.185806  -0.355105
    11  H   -0.009175   0.012869  -0.100501  -0.024926   0.524724  -0.137877
               7          8          9         10         11
     1  C   -0.298539  -0.373811  -0.177083   0.396344  -0.009175
     2  C    0.074158  -1.638038  -0.432419   0.517540   0.012869
     3  C    0.237355   0.678396  -1.550147   0.622511  -0.100501
     4  C    0.038519   0.288063   0.626330  -1.699715  -0.024926
     5  C    0.403933   0.472833   0.341613  -0.185806   0.524724
     6  C   -1.317746  -0.219230   0.480100  -0.355105  -0.137877
     7  Cl  17.491536  -0.017393  -0.013954  -0.011271   0.020011
     8  Cl  -0.017393  17.584239  -0.290066   0.005080   0.004251
     9  Cl  -0.013954  -0.290066  17.798200  -0.342240  -0.016832
    10  Cl  -0.011271   0.005080  -0.342240  17.611005   0.020997
    11  H    0.020011   0.004251  -0.016832   0.020997   0.480695
          Atomic-Atomic Spin Densities.
               1          2          3          4          5          6
     1  C    0.998177   0.132879  -0.463514   0.440144  -0.382424   0.100409
     2  C    0.132879   0.155237  -0.387305  -0.377531  -0.060591   0.472916
     3  C   -0.463514  -0.387305   0.842207  -0.312329   0.045859   0.334566
     4  C    0.440144  -0.377531  -0.312329   0.510896  -0.020345  -0.232819
     5  C   -0.382424  -0.060591   0.045859  -0.020345   0.610610  -0.132594
     6  C    0.100409   0.472916   0.334566  -0.232819  -0.132594  -0.427441
     7  Cl  -0.070311  -0.001933  -0.005619  -0.002878   0.055860   0.019989
     8  Cl  -0.083650  -0.097416   0.114087   0.092356   0.026470  -0.063243
     9  Cl   0.026271   0.173790  -0.080088  -0.139484  -0.040102   0.043181
    10  Cl  -0.047594  -0.016633   0.021938  -0.020568   0.054369  -0.007831
    11  H    0.015694   0.001079   0.004700  -0.000024  -0.041263   0.020923
               7          8          9         10         11
     1  C   -0.070311  -0.083650   0.026271  -0.047594   0.015694
     2  C   -0.001933  -0.097416   0.173790  -0.016633   0.001079
     3  C   -0.005619   0.114087  -0.080088   0.021938   0.004700
     4  C   -0.002878   0.092356  -0.139484  -0.020568  -0.000024
     5  C    0.055860   0.026470  -0.040102   0.054369  -0.041263
     6  C    0.019989  -0.063243   0.043181  -0.007831   0.020923
     7  Cl   0.019626   0.001845  -0.000823   0.002399  -0.003493
     8  Cl   0.001845   0.060017  -0.041240   0.002550  -0.000107
     9  Cl  -0.000823  -0.041240   0.069440   0.001349  -0.000048
    10  Cl   0.002399   0.002550   0.001349   0.005512  -0.000981
    11  H   -0.003493  -0.000107  -0.000048  -0.000981   0.014030
 Mulliken charges and spin densities:
               1          2
     1  C   -0.715137   0.666081
     2  C   -0.556785  -0.005507
     3  C   -0.053812   0.114503
     4  C    0.188244  -0.062582
     5  C   -0.857615   0.115850
     6  C   -0.126884   0.128056
     7  Cl   0.393389   0.014663
     8  Cl   0.505676   0.011668
     9  Cl   0.576499   0.012247
    10  Cl   0.420659  -0.005490
    11  H    0.225765   0.010510
 Sum of Mulliken charges =  -0.00000   1.00000
 Mulliken charges and spin densities with hydrogens summed into heavy atoms:
               1          2
     1  C   -0.715137   0.666081
     2  C   -0.556785  -0.005507
     3  C   -0.053812   0.114503
     4  C    0.188244  -0.062582
     5  C   -0.631850   0.126360
     6  C   -0.126884   0.128056
     7  Cl   0.393389   0.014663
     8  Cl   0.505676   0.011668
     9  Cl   0.576499   0.012247
    10  Cl   0.420659  -0.005490
 Electronic spatial extent (au):  <R**2>=           2713.7652
 Charge=             -0.0000 electrons
 Dipole moment (field-independent basis, Debye):
    X=              0.5536    Y=             -0.5618    Z=             -0.0000  Tot=              0.7887
 Quadrupole moment (field-independent basis, Debye-Ang):
   XX=            -82.8451   YY=            -83.6921   ZZ=            -85.6784
   XY=             -2.4211   XZ=              0.0000   YZ=             -0.0000
 Traceless Quadrupole moment (field-independent basis, Debye-Ang):
   XX=              1.2267   YY=              0.3798   ZZ=             -1.6065
   XY=             -2.4211   XZ=              0.0000   YZ=             -0.0000
 Octapole moment (field-independent basis, Debye-Ang**2):
  XXX=              3.7197  YYY=             10.1934  ZZZ=              0.0000  XYY=              3.6501
  XXY=              3.2933  XXZ=              0.0000  XZZ=             -0.3130  YZZ=              3.6046
  YYZ=              0.0000  XYZ=              0.0000
 Hexadecapole moment (field-independent basis, Debye-Ang**3):
 XXXX=          -1350.4863 YYYY=          -1901.5301 ZZZZ=            -98.2635 XXXY=            -19.3931
 XXXZ=              0.0000 YYYX=             -5.3928 YYYZ=             -0.0000 ZZZX=              0.0000
 ZZZY=             -0.0000 XXYY=           -551.2160 XXZZ=           -257.6504 YYZZ=           -356.4740
 XXYZ=             -0.0000 YYXZ=              0.0000 ZZXY=             -0.1271
 N-N= 8.193247123467D+02 E-N=-6.545358987924D+03  KE= 2.065290417262D+03
 Symmetry A'   KE= 1.874968948530D+03
 Symmetry A"   KE= 1.903214687323D+02
 Symmetry A'   SP= 1.000000000000D+00
 Symmetry A"   SP=-3.184062451431D-14
                          Isotropic Fermi Contact Couplings
        Atom                 a.u.       MegaHertz       Gauss      10(-4) cm-1
     1  C(13)              0.44364     498.74078     177.96311     166.36202
     2  C(13)             -0.01476     -16.59305      -5.92081      -5.53484
     3  C(13)              0.04685      52.67142      18.79447      17.56930
     4  C(13)             -0.00834      -9.37049      -3.34362      -3.12566
     5  C(13)              0.03692      41.50970      14.81169      13.84614
     6  C(13)             -0.01480     -16.63954      -5.93740      -5.55035
     7  Cl(35)             0.01820       7.98151       2.84800       2.66234
     8  Cl(35)             0.01755       7.69425       2.74550       2.56653
     9  Cl(35)             0.00357       1.56312       0.55776       0.52140
    10  Cl(35)             0.00097       0.42670       0.15226       0.14233
    11  H(1)               0.00449      20.08241       7.16590       6.69877
 --------------------------------------------------------
       Center         ----  Spin Dipole Couplings  ----
                      3XX-RR        3YY-RR        3ZZ-RR
 --------------------------------------------------------
     1   Atom        0.621344     -0.230690     -0.390654
     2   Atom       -0.015711      0.118808     -0.103097
     3   Atom        0.013441     -0.017207      0.003766
     4   Atom        0.032611      0.024918     -0.057529
     5   Atom        0.031727     -0.029969     -0.001758
     6   Atom        0.084955      0.019653     -0.104608
     7   Atom       -0.032750      0.169188     -0.136438
     8   Atom        0.020733      0.136577     -0.157310
     9   Atom       -0.007222      0.036594     -0.029372
    10   Atom        0.027102      0.022597     -0.049699
    11   Atom        0.007590     -0.002808     -0.004782
 --------------------------------------------------------
                        XY            XZ            YZ
 --------------------------------------------------------
     1   Atom        0.644948      0.000000     -0.000000
     2   Atom       -0.004722     -0.000000      0.000000
     3   Atom        0.022687      0.000000      0.000000
     4   Atom        0.007578      0.000000      0.000000
     5   Atom        0.020489     -0.000000      0.000000
     6   Atom       -0.063178     -0.000000      0.000000
     7   Atom       -0.084202      0.000000      0.000000
     8   Atom       -0.150203     -0.000000      0.000000
     9   Atom        0.086564     -0.000000      0.000000
    10   Atom        0.002994      0.000000      0.000000
    11   Atom       -0.004501     -0.000000      0.000000
 --------------------------------------------------------


 ---------------------------------------------------------------------------------
              Anisotropic Spin Dipole Couplings in Principal Axis System
 ---------------------------------------------------------------------------------

       Atom             a.u.   MegaHertz   Gauss  10(-4) cm-1        Axes

              Baa    -0.5776   -77.511   -27.658   -25.855 -0.4737  0.8807 -0.0000
     1 C(13)  Bbb    -0.3907   -52.422   -18.705   -17.486  0.0000  0.0000  1.0000
              Bcc     0.9683   129.933    46.363    43.341  0.8807  0.4737  0.0000
 
              Baa    -0.1031   -13.835    -4.937    -4.615  0.0000  0.0000  1.0000
     2 C(13)  Bbb    -0.0159    -2.131    -0.760    -0.711  0.9994  0.0350  0.0000
              Bcc     0.1190    15.965     5.697     5.325 -0.0350  0.9994 -0.0000
 
              Baa    -0.0293    -3.926    -1.401    -1.310 -0.4692  0.8831 -0.0000
     3 C(13)  Bbb     0.0038     0.505     0.180     0.169  0.0000  0.0000  1.0000
              Bcc     0.0255     3.421     1.221     1.141  0.8831  0.4692  0.0000
 
              Baa    -0.0575    -7.720    -2.755    -2.575  0.0000  0.0000  1.0000
     4 C(13)  Bbb     0.0203     2.719     0.970     0.907 -0.5231  0.8522 -0.0000
              Bcc     0.0373     5.000     1.784     1.668  0.8522  0.5231 -0.0000
 
              Baa    -0.0362    -4.851    -1.731    -1.618 -0.2890  0.9573 -0.0000
     5 C(13)  Bbb    -0.0018    -0.236    -0.084    -0.079  0.0000  0.0000  1.0000
              Bcc     0.0379     5.087     1.815     1.697  0.9573  0.2890  0.0000
 
              Baa    -0.1046   -14.037    -5.009    -4.682  0.0000  0.0000  1.0000
     6 C(13)  Bbb    -0.0188    -2.524    -0.901    -0.842  0.5200  0.8541 -0.0000
              Bcc     0.1234    16.562     5.910     5.524  0.8541 -0.5200  0.0000
 
              Baa    -0.1364    -7.141    -2.548    -2.382  0.0000  0.0000  1.0000
     7 Cl(35) Bbb    -0.0633    -3.311    -1.181    -1.104  0.9402  0.3406  0.0000
              Bcc     0.1997    10.451     3.729     3.486 -0.3406  0.9402 -0.0000
 
              Baa    -0.1573    -8.233    -2.938    -2.746  0.0000  0.0000  1.0000
     8 Cl(35) Bbb    -0.0823    -4.309    -1.538    -1.437  0.8246  0.5658 -0.0000
              Bcc     0.2396    12.542     4.475     4.184 -0.5658  0.8246 -0.0000
 
              Baa    -0.0746    -3.905    -1.393    -1.302  0.7891 -0.6143  0.0000
     9 Cl(35) Bbb    -0.0294    -1.537    -0.549    -0.513  0.0000  0.0000  1.0000
              Bcc     0.1040     5.442     1.942     1.815  0.6143  0.7891 -0.0000
 
              Baa    -0.0497    -2.601    -0.928    -0.868  0.0000  0.0000  1.0000
    10 Cl(35) Bbb     0.0211     1.104     0.394     0.368 -0.4466  0.8947 -0.0000
              Bcc     0.0286     1.497     0.534     0.499  0.8947  0.4466 -0.0000
 
              Baa    -0.0048    -2.552    -0.910    -0.851  0.0000  0.0000  1.0000
    11 H(1)   Bbb    -0.0045    -2.393    -0.854    -0.798  0.3492  0.9370 -0.0000
              Bcc     0.0093     4.945     1.764     1.649  0.9370 -0.3492  0.0000
 

 ---------------------------------------------------------------------------------

 Calling FoFJK, ICntrl=      2127 FMM=F ISym2X=1 I1Cent= 0 IOpClX= 1 NMat=1 NMatS=1 NMatT=0.
 ***** Axes restored to original set *****
 -------------------------------------------------------------------
 Center     Atomic                   Forces (Hartrees/Bohr)
 Number     Number              X              Y              Z
 -------------------------------------------------------------------
      1        6          -0.007231538    0.003974886   -0.000000000
      2        6           0.008619810   -0.043520875   -0.000000000
      3        6          -0.025223749   -0.012440201   -0.000000000
      4        6          -0.026731105    0.010437918   -0.000000000
      5        6          -0.004066774    0.003172275   -0.000000000
      6        6           0.043774809    0.014759986    0.000000000
      7       17          -0.022216607   -0.012573349   -0.000000000
      8       17          -0.002170032    0.023330143    0.000000000
      9       17           0.017383960    0.010643618    0.000000000
     10       17           0.017290400   -0.009924393    0.000000000
     11        1           0.000570826    0.012139994    0.000000000
 -------------------------------------------------------------------
 Cartesian Forces:  Max     0.043774809 RMS     0.015543654

 GradGradGradGradGradGradGradGradGradGradGradGradGradGradGradGradGradGrad
 Berny optimization.
 FormGI is forming the generalized inverse of G from B-inverse, IUseBI=4.
 Internal  Forces:  Max     0.025526872 RMS     0.008215457
 Search for a local minimum.
 Step number   1 out of a maximum of   57
 All quantities printed in internal units (Hartrees-Bohrs-Radians)
 Mixed Optimization -- RFO/linear search
 Second derivative matrix not updated -- first step.
 ITU=  0
     Eigenvalues ---    0.01842   0.01890   0.01931   0.01965   0.01980
     Eigenvalues ---    0.02011   0.02105   0.02345   0.16000   0.23484
     Eigenvalues ---    0.25000   0.25000   0.25000   0.25000   0.25000
     Eigenvalues ---    0.25000   0.33591   0.36703   0.37957   0.38455
     Eigenvalues ---    0.38661   0.40127   0.41509   0.43019   0.43897
     Eigenvalues ---    0.48523   0.49806
 RFO step:  Lambda=-8.29939602D-03 EMin= 1.84166969D-02
 Linear search not attempted -- first point.
 Iteration  1 RMS(Cart)=  0.01879920 RMS(Int)=  0.00015864
 Iteration  2 RMS(Cart)=  0.00017194 RMS(Int)=  0.00003445
 Iteration  3 RMS(Cart)=  0.00000003 RMS(Int)=  0.00003445
 ClnCor:  largest displacement from symmetrization is 1.09D-08 for atom     7.
 Variable       Old X    -DE/DX   Delta X   Delta X   Delta X     New X
                                 (Linear)    (Quad)   (Total)
    R1        2.59615  -0.00736   0.00000  -0.01395  -0.01391   2.58224
    R2        2.59722  -0.00772   0.00000  -0.01502  -0.01497   2.58225
    R3        2.68608  -0.01061   0.00000  -0.02416  -0.02417   2.66191
    R4        3.17114   0.02343   0.00000   0.05933   0.05933   3.23047
    R5        2.67530  -0.01066   0.00000  -0.02436  -0.02441   2.65088
    R6        3.18127   0.02038   0.00000   0.05255   0.05255   3.23382
    R7        2.65849  -0.01390   0.00000  -0.03120  -0.03124   2.62725
    R8        3.19996   0.01994   0.00000   0.05312   0.05312   3.25308
    R9        2.66863  -0.01435   0.00000  -0.03272  -0.03271   2.63593
   R10        2.08026  -0.01211   0.00000  -0.03518  -0.03518   2.04508
   R11        3.17408   0.02553   0.00000   0.06498   0.06498   3.23906
    A1        2.25085  -0.01156   0.00000  -0.04353  -0.04340   2.20745
    A2        2.01291   0.00691   0.00000   0.02834   0.02837   2.04128
    A3        2.12474  -0.00396   0.00000  -0.01611  -0.01613   2.10862
    A4        2.14553  -0.00295   0.00000  -0.01223  -0.01224   2.13329
    A5        2.07356  -0.00121   0.00000  -0.00425  -0.00432   2.06924
    A6        2.09668   0.00060   0.00000   0.00212   0.00216   2.09884
    A7        2.11295   0.00060   0.00000   0.00212   0.00216   2.11510
    A8        2.13182  -0.00226   0.00000  -0.01014  -0.01024   2.12158
    A9        2.09432   0.00129   0.00000   0.00566   0.00571   2.10003
   A10        2.05704   0.00098   0.00000   0.00448   0.00453   2.06157
   A11        2.08471   0.00272   0.00000   0.00960   0.00956   2.09427
   A12        2.10051  -0.00244   0.00000  -0.01124  -0.01122   2.08930
   A13        2.09796  -0.00028   0.00000   0.00164   0.00166   2.09962
   A14        2.01252   0.00539   0.00000   0.01998   0.02003   2.03255
   A15        2.14142  -0.00305   0.00000  -0.01136  -0.01139   2.13003
   A16        2.12925  -0.00234   0.00000  -0.00861  -0.00864   2.12060
    D1        0.00000  -0.00000   0.00000   0.00000   0.00000   0.00000
    D2        3.14159   0.00000   0.00000   0.00000   0.00000   3.14159
    D3       -0.00000   0.00000   0.00000  -0.00000   0.00000   0.00000
    D4        3.14159   0.00000   0.00000   0.00000   0.00000   3.14159
    D5       -0.00000   0.00000   0.00000  -0.00000   0.00000   0.00000
    D6        3.14159   0.00000   0.00000  -0.00000   0.00000   3.14159
    D7        3.14159  -0.00000   0.00000   0.00000   0.00000   3.14159
    D8       -0.00000  -0.00000   0.00000  -0.00000   0.00000   0.00000
    D9       -0.00000   0.00000   0.00000  -0.00000   0.00000   0.00000
   D10        3.14159  -0.00000   0.00000   0.00000   0.00000   3.14159
   D11        3.14159  -0.00000   0.00000  -0.00000   0.00000   3.14159
   D12       -0.00000  -0.00000   0.00000   0.00000   0.00000   0.00000
   D13        0.00000  -0.00000   0.00000   0.00000   0.00000   0.00000
   D14        3.14159   0.00000   0.00000   0.00000   0.00000   3.14159
   D15        3.14159  -0.00000   0.00000  -0.00000   0.00000   3.14159
   D16        0.00000   0.00000   0.00000  -0.00000   0.00000   0.00000
   D17        0.00000  -0.00000   0.00000  -0.00000  -0.00000   0.00000
   D18        3.14159  -0.00000   0.00000  -0.00000   0.00000   3.14159
   D19        3.14159   0.00000   0.00000  -0.00000   0.00000   3.14159
   D20       -0.00000  -0.00000   0.00000  -0.00000   0.00000   0.00000
         Item               Value     Threshold  Converged?
 Maximum Force            0.025527     0.000450     NO 
 RMS     Force            0.008215     0.000300     NO 
 Maximum Displacement     0.071098     0.001800     NO 
 RMS     Displacement     0.018809     0.001200     NO 
 Predicted change in Energy=-4.242162D-03
 GradGradGradGradGradGradGradGradGradGradGradGradGradGradGradGradGradGrad

                          Input orientation:                          
 ---------------------------------------------------------------------
 Center     Atomic      Atomic             Coordinates (Angstroms)
 Number     Number       Type             X           Y           Z
 ---------------------------------------------------------------------
      1          6           0       -3.122224    0.095405   -0.000000
      2          6           0       -2.002882    0.879176    0.000000
      3          6           0       -0.759641    0.216927    0.000000
      4          6           0       -0.747021   -1.185803    0.000000
      5          6           0       -1.925104   -1.924044   -0.000000
      6          6           0       -3.157455   -1.270608   -0.000000
      7         17           0       -4.633343   -2.142206   -0.000000
      8         17           0       -2.127639    2.584108    0.000000
      9         17           0        0.696293    1.116197    0.000000
     10         17           0        0.746687   -2.041519    0.000000
     11          1           0       -1.880441   -3.005332   -0.000000
 ---------------------------------------------------------------------
                    Distance matrix (angstroms):
                    1          2          3          4          5
     1  C    0.000000
     2  C    1.366464   0.000000
     3  C    2.365707   1.408624   0.000000
     4  C    2.698720   2.416884   1.402787   0.000000
     5  C    2.347610   2.804299   2.437635   1.390281   0.000000
     6  C    1.366468   2.440208   2.821751   2.411926   1.394872
     7  Cl   2.700071   4.006005   4.535535   4.002276   2.717012
     8  Cl   2.680082   1.709490   2.734038   4.014765   4.512699
     9  Cl   3.952606   2.709562   1.711265   2.717050   4.014323
    10  Cl   4.419832   4.011307   2.714701   1.721456   2.674372
    11  H    3.340149   3.886437   3.411619   2.143671   1.082209
                    6          7          8          9         10
     6  C    0.000000
     7  Cl   1.714038   0.000000
     8  Cl   3.989907   5.349448   0.000000
     9  Cl   4.533014   6.246776   3.182665   0.000000
    10  Cl   3.979526   5.380972   5.445931   3.158117   0.000000
    11  H    2.154073   2.885040   5.594903   4.860715   2.798345
                   11
    11  H    0.000000
 Stoichiometry    C6HCl4(2)
 Framework group  CS[SG(C6HCl4)]
 Deg. of freedom    19
 Full point group                 CS      NOp   2
 Largest Abelian subgroup         CS      NOp   2
 Largest concise Abelian subgroup C1      NOp   1
                         Standard orientation:                         
 ---------------------------------------------------------------------
 Center     Atomic      Atomic             Coordinates (Angstroms)
 Number     Number       Type             X           Y           Z
 ---------------------------------------------------------------------
      1          6           0       -1.173597   -1.117021    0.000000
      2          6           0       -1.228770    0.248329    0.000000
      3          6           0        0.000000    0.937058    0.000000
      4          6           0        1.187414    0.190157    0.000000
      5          6           0        1.172544   -1.200044    0.000000
      6          6           0       -0.042927   -1.884366    0.000000
      7         17           0       -0.106383   -3.597230    0.000000
      8         17           0       -2.731087    1.064049    0.000000
      9         17           0        0.029390    2.648071    0.000000
     10         17           0        2.714274    0.985210    0.000000
     11          1           0        2.106722   -1.746385    0.000000
 ---------------------------------------------------------------------
 Rotational constants (GHZ):           0.8545791           0.5870399           0.3479921
 Standard basis: 6-311++G(d,p) (5D, 7F)
 There are   200 symmetry adapted cartesian basis functions of A'  symmetry.
 There are    69 symmetry adapted cartesian basis functions of A"  symmetry.
 There are   190 symmetry adapted basis functions of A'  symmetry.
 There are    69 symmetry adapted basis functions of A"  symmetry.
   259 basis functions,   437 primitive gaussians,   269 cartesian basis functions
    53 alpha electrons       52 beta electrons
       nuclear repulsion energy       816.5363056646 Hartrees.
 NAtoms=   11 NActive=   11 NUniq=   11 SFac= 1.00D+00 NAtFMM=   60 NAOKFM=F Big=F
 Integral buffers will be    131072 words long.
 Raffenetti 2 integral format.
 Two-electron integral symmetry is turned on.
 One-electron integrals computed using PRISM.
 NBasis=   259 RedAO= T EigKep=  1.17D-06  NBF=   190    69
 NBsUse=   258 1.00D-06 EigRej=  8.05D-07 NBFU=   189    69
 Initial guess from the checkpoint file:  "frequency_chks/12345-1_345-ClBzNeutralRadical_Freq.chk"
 B after Tr=    -0.000000   -0.000000    0.000000
         Rot=    1.000000    0.000000   -0.000000   -0.000244 Ang=  -0.03 deg.
 Initial guess orbital symmetries:
 Alpha Orbitals:
       Occupied  (A') (A') (A') (A') (A') (A') (A') (A') (A') (A')
                 (A') (A') (A') (A') (A') (A') (A') (A') (A") (A')
                 (A") (A') (A") (A') (A") (A') (A') (A') (A') (A')
                 (A') (A') (A') (A') (A') (A') (A') (A') (A') (A")
                 (A') (A') (A") (A") (A") (A') (A') (A') (A') (A")
                 (A') (A") (A")
       Virtual   (A") (A") (A') (A') (A') (A') (A') (A') (A") (A')
                 (A') (A") (A") (A') (A') (A') (A") (A') (A') (A")
                 (A") (A') (A') (A') (A') (A") (A') (A") (A') (A')
                 (A") (A") (A') (A') (A') (A') (A") (A') (A') (A')
                 (A') (A') (A') (A') (A') (A') (A') (A') (A') (A')
                 (A') (A') (A') (A') (A") (A') (A") (A') (A") (A')
                 (A') (A') (A") (A') (A') (A") (A') (A') (A") (A")
                 (A') (A") (A") (A') (A') (A') (A") (A') (A') (A')
                 (A") (A') (A') (A") (A') (A") (A') (A') (A') (A")
                 (A') (A") (A") (A") (A') (A') (A') (A') (A') (A")
                 (A') (A') (A') (A") (A') (A') (A') (A') (A') (A")
                 (A') (A') (A") (A') (A') (A') (A") (A') (A") (A")
                 (A') (A') (A') (A') (A') (A") (A') (A') (A') (A")
                 (A') (A") (A') (A") (A") (A') (A") (A') (A') (A')
                 (A') (A") (A') (A") (A") (A") (A') (A") (A') (A')
                 (A') (A') (A') (A') (A') (A') (A') (A') (A") (A')
                 (A') (A") (A") (A") (A") (A') (A') (A") (A') (A')
                 (A') (A') (A') (A') (A') (A') (A') (A') (A') (A')
                 (A') (A') (A') (A') (A') (A') (A') (A') (A') (A")
                 (A") (A") (A") (A') (A') (A') (A') (A') (A') (A')
                 (A') (A') (A') (A') (A')
 Beta  Orbitals:
       Occupied  (A') (A') (A') (A') (A') (A') (A') (A') (A') (A')
                 (A') (A') (A') (A') (A') (A') (A') (A') (A") (A')
                 (A") (A') (A") (A') (A") (A') (A') (A') (A') (A')
                 (A') (A') (A') (A') (A') (A') (A') (A') (A') (A")
                 (A') (A') (A") (A") (A") (A') (A') (A') (A') (A")
                 (A") (A")
       Virtual   (A') (A") (A") (A') (A') (A') (A') (A') (A') (A")
                 (A') (A') (A") (A") (A') (A') (A') (A") (A') (A')
                 (A") (A") (A') (A') (A') (A') (A") (A') (A") (A')
                 (A') (A") (A") (A') (A') (A') (A') (A") (A') (A')
                 (A') (A') (A') (A') (A') (A') (A') (A') (A') (A')
                 (A') (A') (A') (A') (A') (A') (A") (A") (A') (A")
                 (A') (A') (A') (A") (A') (A') (A") (A') (A') (A")
                 (A') (A") (A") (A") (A') (A') (A') (A") (A') (A')
                 (A') (A") (A') (A') (A") (A') (A") (A') (A') (A')
                 (A') (A") (A") (A") (A") (A') (A') (A') (A') (A')
                 (A') (A") (A') (A') (A") (A') (A') (A') (A') (A')
                 (A") (A') (A') (A') (A") (A') (A') (A") (A') (A")
                 (A") (A') (A') (A') (A') (A") (A') (A') (A') (A')
                 (A") (A') (A") (A') (A") (A") (A') (A") (A') (A')
                 (A') (A') (A") (A') (A") (A") (A') (A") (A") (A')
                 (A') (A') (A') (A') (A') (A') (A') (A') (A') (A")
                 (A') (A') (A") (A") (A") (A") (A') (A") (A') (A')
                 (A') (A') (A') (A') (A') (A') (A') (A') (A') (A')
                 (A') (A') (A') (A') (A') (A') (A') (A') (A') (A')
                 (A") (A") (A") (A") (A') (A') (A') (A') (A') (A')
                 (A') (A') (A') (A') (A') (A')
 Initial guess <Sx>= 0.0000 <Sy>= 0.0000 <Sz>= 0.5000 <S**2>= 0.7637 S= 0.5068
 ExpMin= 3.60D-02 ExpMax= 1.06D+05 ExpMxC= 3.62D+03 IAcc=3 IRadAn=         5 AccDes= 0.00D+00
 Harris functional with IExCor= 1009 and IRadAn=       5 diagonalized for initial guess.
 HarFok:  IExCor= 1009 AccDes= 0.00D+00 IRadAn=         5 IDoV= 1 UseB2=F ITyADJ=14
 ICtDFT=  3500011 ScaDFX=  1.000000  1.000000  1.000000  1.000000
 FoFCou: FMM=F IPFlag=           0 FMFlag=      100000 FMFlg1=           0
         NFxFlg=           0 DoJE=T BraDBF=F KetDBF=T FulRan=T
         wScrn=  0.000000 ICntrl=       500 IOpCl=  0 I1Cent=   200000004 NGrid=           0
         NMat0=    1 NMatS0=      1 NMatT0=    0 NMatD0=    1 NMtDS0=    0 NMtDT0=    0
 Petite list used in FoFCou.
 Keep R1 and R2 ints in memory in symmetry-blocked form, NReq=892001928.
 Requested convergence on RMS density matrix=1.00D-08 within 128 cycles.
 Requested convergence on MAX density matrix=1.00D-06.
 Requested convergence on             energy=1.00D-06.
 No special actions if energy rises.
 SCF Done:  E(UM062X) =  -2069.89773139     A.U. after   18 cycles
            NFock= 18  Conv=0.60D-08     -V/T= 2.0022
 <Sx>= 0.0000 <Sy>= 0.0000 <Sz>= 0.5000 <S**2>= 0.7633 S= 0.5066
 <L.S>=  0.00000000000    
 Annihilation of the first spin contaminant:
 S**2 before annihilation     0.7633,   after     0.7501
 Calling FoFJK, ICntrl=      2127 FMM=F ISym2X=1 I1Cent= 0 IOpClX= 1 NMat=1 NMatS=1 NMatT=0.
 ***** Axes restored to original set *****
 -------------------------------------------------------------------
 Center     Atomic                   Forces (Hartrees/Bohr)
 Number     Number              X              Y              Z
 -------------------------------------------------------------------
      1        6          -0.006132298    0.003698222   -0.000000000
      2        6           0.005561640   -0.013242617   -0.000000000
      3        6          -0.005871151   -0.001078239   -0.000000000
      4        6          -0.004385574    0.004623470   -0.000000000
      5        6          -0.002673691   -0.002061002   -0.000000000
      6        6           0.013443549    0.004558945   -0.000000000
      7       17          -0.006512214   -0.003810290   -0.000000000
      8       17          -0.001223571    0.007534356   -0.000000000
      9       17           0.004119418    0.002384254   -0.000000000
     10       17           0.003624916   -0.002245910   -0.000000000
     11        1           0.000048975   -0.000361188   -0.000000000
 -------------------------------------------------------------------
 Cartesian Forces:  Max     0.013443549 RMS     0.004615175

 GradGradGradGradGradGradGradGradGradGradGradGradGradGradGradGradGradGrad
 Berny optimization.
 Using GEDIIS/GDIIS optimizer.
 FormGI is forming the generalized inverse of G from B-inverse, IUseBI=4.
 Internal  Forces:  Max     0.007603772 RMS     0.002202277
 Search for a local minimum.
 Step number   2 out of a maximum of   57
 All quantities printed in internal units (Hartrees-Bohrs-Radians)
 Mixed Optimization -- RFO/linear search
 Update second derivatives using D2CorX and points    1    2
 DE= -5.10D-03 DEPred=-4.24D-03 R= 1.20D+00
 TightC=F SS=  1.41D+00  RLast= 1.49D-01 DXNew= 5.0454D-01 4.4815D-01
 Trust test= 1.20D+00 RLast= 1.49D-01 DXMaxT set to 4.48D-01
 ITU=  1  0
 Use linear search instead of GDIIS.
     Eigenvalues ---    0.01842   0.01890   0.01930   0.01965   0.01979
     Eigenvalues ---    0.02011   0.02106   0.02338   0.16006   0.21202
     Eigenvalues ---    0.23891   0.25000   0.25000   0.25000   0.25000
     Eigenvalues ---    0.25043   0.32374   0.34274   0.37033   0.38154
     Eigenvalues ---    0.38585   0.40092   0.41767   0.43063   0.43975
     Eigenvalues ---    0.49744   0.49889
 RFO step:  Lambda=-3.38973561D-04 EMin= 1.84167301D-02
 Quartic linear search produced a step of  0.32339.
 Iteration  1 RMS(Cart)=  0.00621416 RMS(Int)=  0.00005064
 Iteration  2 RMS(Cart)=  0.00006245 RMS(Int)=  0.00002691
 Iteration  3 RMS(Cart)=  0.00000000 RMS(Int)=  0.00002691
 ClnCor:  largest displacement from symmetrization is 3.17D-10 for atom    10.
 Variable       Old X    -DE/DX   Delta X   Delta X   Delta X     New X
                                 (Linear)    (Quad)   (Total)
    R1        2.58224   0.00022  -0.00450   0.00450   0.00004   2.58228
    R2        2.58225   0.00057  -0.00484   0.00589   0.00109   2.58333
    R3        2.66191  -0.00298  -0.00782  -0.00274  -0.01056   2.65136
    R4        3.23047   0.00760   0.01919   0.00933   0.02852   3.25898
    R5        2.65088  -0.00138  -0.00790   0.00246  -0.00547   2.64541
    R6        3.23382   0.00476   0.01699   0.00181   0.01880   3.25262
    R7        2.62725   0.00005  -0.01010   0.00896  -0.00117   2.62608
    R8        3.25308   0.00426   0.01718   0.00043   0.01761   3.27069
    R9        2.63593  -0.00216  -0.01058   0.00288  -0.00769   2.62824
   R10        2.04508   0.00036  -0.01138   0.01130  -0.00007   2.04500
   R11        3.23906   0.00754   0.02101   0.00768   0.02869   3.26776
    A1        2.20745  -0.00465  -0.01404  -0.01182  -0.02576   2.18169
    A2        2.04128   0.00283   0.00917   0.00673   0.01593   2.05721
    A3        2.10862  -0.00249  -0.00522  -0.00851  -0.01374   2.09487
    A4        2.13329  -0.00034  -0.00396   0.00178  -0.00219   2.13110
    A5        2.06924  -0.00031  -0.00140  -0.00097  -0.00242   2.06682
    A6        2.09884   0.00038   0.00070   0.00168   0.00240   2.10125
    A7        2.11510  -0.00007   0.00070  -0.00071   0.00001   2.11512
    A8        2.12158   0.00034  -0.00331   0.00451   0.00112   2.12270
    A9        2.10003   0.00008   0.00185  -0.00113   0.00076   2.10079
   A10        2.06157  -0.00041   0.00146  -0.00338  -0.00188   2.05969
   A11        2.09427  -0.00153   0.00309  -0.01124  -0.00818   2.08609
   A12        2.08930   0.00073  -0.00363   0.00714   0.00353   2.09283
   A13        2.09962   0.00080   0.00054   0.00409   0.00465   2.10427
   A14        2.03255   0.00332   0.00648   0.01279   0.01931   2.05186
   A15        2.13003  -0.00172  -0.00368  -0.00631  -0.01001   2.12002
   A16        2.12060  -0.00160  -0.00280  -0.00648  -0.00930   2.11130
    D1        0.00000  -0.00000   0.00000   0.00000   0.00000   0.00000
    D2        3.14159   0.00000   0.00000  -0.00000   0.00000   3.14159
    D3        0.00000   0.00000   0.00000  -0.00000   0.00000   0.00000
    D4        3.14159  -0.00000   0.00000  -0.00000   0.00000   3.14159
    D5        0.00000   0.00000   0.00000  -0.00000   0.00000   0.00000
    D6        3.14159  -0.00000   0.00000  -0.00000   0.00000   3.14159
    D7        3.14159   0.00000   0.00000   0.00000   0.00000   3.14159
    D8        0.00000  -0.00000   0.00000   0.00000   0.00000   0.00000
    D9        0.00000   0.00000   0.00000  -0.00000   0.00000   0.00000
   D10        3.14159   0.00000   0.00000  -0.00000   0.00000   3.14159
   D11        3.14159   0.00000   0.00000   0.00000   0.00000   3.14159
   D12        0.00000  -0.00000   0.00000  -0.00000   0.00000   0.00000
   D13        0.00000   0.00000   0.00000   0.00000   0.00000   0.00000
   D14        3.14159   0.00000   0.00000   0.00000   0.00000   3.14159
   D15        3.14159   0.00000   0.00000   0.00000   0.00000   3.14159
   D16        0.00000   0.00000   0.00000   0.00000   0.00000   0.00000
   D17        0.00000  -0.00000   0.00000  -0.00000   0.00000   0.00000
   D18        3.14159   0.00000   0.00000  -0.00000   0.00000   3.14159
   D19        3.14159   0.00000   0.00000  -0.00000   0.00000   3.14159
   D20        0.00000   0.00000   0.00000   0.00000   0.00000   0.00000
         Item               Value     Threshold  Converged?
 Maximum Force            0.007604     0.000450     NO 
 RMS     Force            0.002202     0.000300     NO 
 Maximum Displacement     0.017801     0.001800     NO 
 RMS     Displacement     0.006206     0.001200     NO 
 Predicted change in Energy=-4.713323D-04
 GradGradGradGradGradGradGradGradGradGradGradGradGradGradGradGradGradGrad

                          Input orientation:                          
 ---------------------------------------------------------------------
 Center     Atomic      Atomic             Coordinates (Angstroms)
 Number     Number       Type             X           Y           Z
 ---------------------------------------------------------------------
      1          6           0       -3.131644    0.101847   -0.000000
      2          6           0       -2.002078    0.870846   -0.000000
      3          6           0       -0.761934    0.214676   -0.000000
      4          6           0       -0.748823   -1.185153   -0.000000
      5          6           0       -1.925282   -1.924816   -0.000000
      6          6           0       -3.149649   -1.265077   -0.000000
      7         17           0       -4.636316   -2.148270   -0.000000
      8         17           0       -2.128962    2.590752   -0.000000
      9         17           0        0.702118    1.119733   -0.000000
     10         17           0        0.752633   -2.046085   -0.000000
     11          1           0       -1.882832   -3.006153   -0.000000
 ---------------------------------------------------------------------
                    Distance matrix (angstroms):
                    1          2          3          4          5
     1  C    0.000000
     2  C    1.366484   0.000000
     3  C    2.372394   1.403038   0.000000
     4  C    2.708173   2.407858   1.399890   0.000000
     5  C    2.358532   2.796717   2.435324   1.389660   0.000000
     6  C    1.367042   2.424683   2.809066   2.402156   1.390802
     7  Cl   2.706855   4.006778   4.538099   4.005021   2.720227
     8  Cl   2.683286   1.724580   2.741259   4.020229   4.520160
     9  Cl   3.966589   2.715626   1.721214   2.723551   4.021506
    10  Cl   4.438605   4.012097   2.721205   1.730773   2.680659
    11  H    3.349506   3.878833   3.410301   2.145231   1.082170
                    6          7          8          9         10
     6  C    0.000000
     7  Cl   1.729222   0.000000
     8  Cl   3.988636   5.361451   0.000000
     9  Cl   4.530279   6.259291   3.190441   0.000000
    10  Cl   3.979671   5.389917   5.459290   3.166221   0.000000
    11  H    2.153177   2.884031   5.602315   4.868768   2.804890
                   11
    11  H    0.000000
 Stoichiometry    C6HCl4(2)
 Framework group  CS[SG(C6HCl4)]
 Deg. of freedom    19
 Full point group                 CS      NOp   2
 Largest Abelian subgroup         CS      NOp   2
 Largest concise Abelian subgroup C1      NOp   1
                         Standard orientation:                         
 ---------------------------------------------------------------------
 Center     Atomic      Atomic             Coordinates (Angstroms)
 Number     Number       Type             X           Y           Z
 ---------------------------------------------------------------------
      1          6           0       -1.184398   -1.122430    0.000000
      2          6           0       -1.221859    0.243540    0.000000
      3          6           0        0.000000    0.933161    0.000000
      4          6           0        1.185368    0.188450    0.000000
      5          6           0        1.172819   -1.201154    0.000000
      6          6           0       -0.043527   -1.875568    0.000000
      7         17           0       -0.102738   -3.603775    0.000000
      8         17           0       -2.738073    1.065290    0.000000
      9         17           0        0.028599    2.654137    0.000000
     10         17           0        2.720662    0.987479    0.000000
     11          1           0        2.105940   -1.749220    0.000000
 ---------------------------------------------------------------------
 Rotational constants (GHZ):           0.8508735           0.5852150           0.3467362
 Standard basis: 6-311++G(d,p) (5D, 7F)
 There are   200 symmetry adapted cartesian basis functions of A'  symmetry.
 There are    69 symmetry adapted cartesian basis functions of A"  symmetry.
 There are   190 symmetry adapted basis functions of A'  symmetry.
 There are    69 symmetry adapted basis functions of A"  symmetry.
   259 basis functions,   437 primitive gaussians,   269 cartesian basis functions
    53 alpha electrons       52 beta electrons
       nuclear repulsion energy       814.8464764389 Hartrees.
 NAtoms=   11 NActive=   11 NUniq=   11 SFac= 1.00D+00 NAtFMM=   60 NAOKFM=F Big=F
 Integral buffers will be    131072 words long.
 Raffenetti 2 integral format.
 Two-electron integral symmetry is turned on.
 One-electron integrals computed using PRISM.
 NBasis=   259 RedAO= T EigKep=  1.18D-06  NBF=   190    69
 NBsUse=   258 1.00D-06 EigRej=  8.28D-07 NBFU=   189    69
 Initial guess from the checkpoint file:  "frequency_chks/12345-1_345-ClBzNeutralRadical_Freq.chk"
 B after Tr=     0.000000    0.000000   -0.000000
         Rot=    1.000000   -0.000000   -0.000000   -0.000209 Ang=  -0.02 deg.
 Initial guess orbital symmetries:
 Alpha Orbitals:
       Occupied  (A') (A') (A') (A') (A') (A') (A') (A') (A') (A')
                 (A') (A') (A') (A') (A') (A') (A') (A') (A") (A')
                 (A") (A') (A") (A') (A") (A') (A') (A') (A') (A')
                 (A') (A') (A') (A') (A') (A') (A') (A') (A') (A")
                 (A') (A') (A") (A") (A") (A') (A') (A') (A") (A')
                 (A') (A") (A")
       Virtual   (A") (A") (A') (A') (A') (A') (A') (A') (A") (A')
                 (A') (A") (A") (A') (A') (A') (A") (A') (A') (A")
                 (A') (A") (A') (A') (A') (A") (A') (A") (A') (A')
                 (A") (A") (A') (A') (A') (A') (A") (A') (A') (A')
                 (A') (A') (A') (A') (A') (A') (A') (A') (A') (A')
                 (A') (A') (A') (A') (A") (A') (A') (A") (A") (A')
                 (A') (A') (A") (A') (A') (A") (A') (A') (A") (A")
                 (A') (A") (A") (A') (A') (A') (A") (A') (A') (A')
                 (A') (A") (A') (A') (A") (A') (A") (A') (A') (A')
                 (A") (A") (A") (A") (A') (A') (A') (A') (A') (A')
                 (A") (A') (A') (A") (A') (A') (A') (A') (A') (A")
                 (A') (A") (A') (A') (A') (A') (A") (A') (A") (A")
                 (A') (A') (A') (A') (A') (A") (A') (A') (A") (A')
                 (A') (A') (A") (A") (A") (A') (A') (A") (A') (A')
                 (A') (A") (A') (A") (A") (A') (A") (A") (A') (A')
                 (A') (A') (A') (A') (A') (A') (A') (A') (A") (A')
                 (A') (A") (A") (A") (A") (A') (A') (A") (A') (A')
                 (A') (A') (A') (A') (A') (A') (A') (A') (A') (A')
                 (A') (A') (A') (A') (A') (A') (A') (A') (A') (A")
                 (A") (A") (A") (A') (A') (A') (A') (A') (A') (A')
                 (A') (A') (A') (A') (A')
 Beta  Orbitals:
       Occupied  (A') (A') (A') (A') (A') (A') (A') (A') (A') (A')
                 (A') (A') (A') (A') (A') (A') (A') (A') (A") (A')
                 (A") (A") (A') (A') (A") (A') (A') (A') (A') (A')
                 (A') (A') (A') (A') (A') (A') (A') (A') (A') (A")
                 (A') (A') (A") (A") (A") (A') (A') (A') (A") (A')
                 (A") (A")
       Virtual   (A') (A") (A") (A') (A') (A') (A') (A') (A') (A")
                 (A') (A') (A") (A") (A') (A') (A') (A") (A') (A')
                 (A") (A") (A') (A') (A') (A') (A") (A') (A') (A")
                 (A') (A") (A") (A') (A') (A') (A') (A") (A') (A')
                 (A') (A') (A') (A') (A') (A') (A') (A') (A') (A')
                 (A') (A') (A') (A') (A') (A') (A") (A') (A") (A")
                 (A') (A') (A') (A") (A') (A') (A") (A') (A') (A")
                 (A") (A') (A") (A") (A') (A') (A') (A") (A') (A')
                 (A') (A') (A") (A') (A') (A") (A') (A") (A') (A')
                 (A') (A") (A") (A") (A") (A') (A') (A') (A') (A')
                 (A') (A") (A') (A') (A") (A') (A') (A') (A') (A')
                 (A") (A') (A') (A") (A') (A') (A') (A") (A') (A")
                 (A") (A') (A') (A') (A') (A') (A") (A') (A') (A")
                 (A') (A') (A') (A") (A") (A") (A') (A") (A') (A')
                 (A') (A') (A") (A') (A") (A") (A') (A") (A") (A')
                 (A') (A') (A') (A') (A') (A') (A') (A') (A') (A")
                 (A') (A') (A") (A") (A") (A") (A') (A') (A") (A')
                 (A') (A') (A') (A') (A') (A') (A') (A') (A') (A')
                 (A') (A') (A') (A') (A') (A') (A') (A') (A') (A')
                 (A") (A") (A") (A") (A') (A') (A') (A') (A') (A')
                 (A') (A') (A') (A') (A') (A')
 Initial guess <Sx>= 0.0000 <Sy>= 0.0000 <Sz>= 0.5000 <S**2>= 0.7633 S= 0.5066
 Keep R1 and R2 ints in memory in symmetry-blocked form, NReq=892001928.
 Requested convergence on RMS density matrix=1.00D-08 within 128 cycles.
 Requested convergence on MAX density matrix=1.00D-06.
 Requested convergence on             energy=1.00D-06.
 No special actions if energy rises.
 SCF Done:  E(UM062X) =  -2069.89826100     A.U. after   21 cycles
            NFock= 21  Conv=0.30D-08     -V/T= 2.0023
 <Sx>= 0.0000 <Sy>= 0.0000 <Sz>= 0.5000 <S**2>= 0.7634 S= 0.5067
 <L.S>=  0.00000000000    
 Annihilation of the first spin contaminant:
 S**2 before annihilation     0.7634,   after     0.7501
 Calling FoFJK, ICntrl=      2127 FMM=F ISym2X=1 I1Cent= 0 IOpClX= 1 NMat=1 NMatS=1 NMatT=0.
 ***** Axes restored to original set *****
 -------------------------------------------------------------------
 Center     Atomic                   Forces (Hartrees/Bohr)
 Number     Number              X              Y              Z
 -------------------------------------------------------------------
      1        6          -0.001541518    0.000360750   -0.000000000
      2        6           0.001248217   -0.001231616   -0.000000000
      3        6           0.000452206    0.000844603   -0.000000000
      4        6           0.000668749    0.000503117   -0.000000000
      5        6          -0.000450912   -0.001467050   -0.000000000
      6        6           0.001758366    0.000898664   -0.000000000
      7       17          -0.000964340   -0.000458407   -0.000000000
      8       17          -0.000290227    0.000843621   -0.000000000
      9       17          -0.000442678   -0.000272896   -0.000000000
     10       17          -0.000338454    0.000127150   -0.000000000
     11        1          -0.000099409   -0.000147935   -0.000000000
 -------------------------------------------------------------------
 Cartesian Forces:  Max     0.001758366 RMS     0.000692459

 GradGradGradGradGradGradGradGradGradGradGradGradGradGradGradGradGradGrad
 Berny optimization.
 Using GEDIIS/GDIIS optimizer.
 FormGI is forming the generalized inverse of G from B-inverse, IUseBI=4.
 Internal  Forces:  Max     0.001062826 RMS     0.000358334
 Search for a local minimum.
 Step number   3 out of a maximum of   57
 All quantities printed in internal units (Hartrees-Bohrs-Radians)
 Mixed Optimization -- En-DIIS/RFO-DIIS
 Update second derivatives using D2CorX and points    1    2    3
 DE= -5.30D-04 DEPred=-4.71D-04 R= 1.12D+00
 TightC=F SS=  1.41D+00  RLast= 6.55D-02 DXNew= 7.5370D-01 1.9653D-01
 Trust test= 1.12D+00 RLast= 6.55D-02 DXMaxT set to 4.48D-01
 ITU=  1  1  0
 Use linear search instead of GDIIS.
     Eigenvalues ---    0.01842   0.01890   0.01930   0.01965   0.01979
     Eigenvalues ---    0.02010   0.02105   0.02334   0.16012   0.18295
     Eigenvalues ---    0.23981   0.25000   0.25000   0.25000   0.25015
     Eigenvalues ---    0.25057   0.32545   0.34266   0.37029   0.38449
     Eigenvalues ---    0.38585   0.40070   0.41907   0.43302   0.44048
     Eigenvalues ---    0.49725   0.50467
 RFO step:  Lambda=-1.31934113D-05 EMin= 1.84160511D-02
 Quartic linear search produced a step of  0.11034.
 Iteration  1 RMS(Cart)=  0.00118537 RMS(Int)=  0.00000246
 Iteration  2 RMS(Cart)=  0.00000226 RMS(Int)=  0.00000211
 Iteration  3 RMS(Cart)=  0.00000000 RMS(Int)=  0.00000211
 ClnCor:  largest displacement from symmetrization is 7.44D-10 for atom    10.
 Variable       Old X    -DE/DX   Delta X   Delta X   Delta X     New X
                                 (Linear)    (Quad)   (Total)
    R1        2.58228   0.00062   0.00000   0.00116   0.00116   2.58344
    R2        2.58333   0.00021   0.00012   0.00020   0.00032   2.58366
    R3        2.65136  -0.00022  -0.00116   0.00003  -0.00113   2.65023
    R4        3.25898   0.00086   0.00315   0.00062   0.00376   3.26275
    R5        2.64541   0.00033  -0.00060   0.00104   0.00043   2.64584
    R6        3.25262  -0.00052   0.00207  -0.00257  -0.00049   3.25213
    R7        2.62608   0.00089  -0.00013   0.00203   0.00190   2.62797
    R8        3.27069  -0.00036   0.00194  -0.00202  -0.00008   3.27061
    R9        2.62824   0.00023  -0.00085   0.00095   0.00011   2.62834
   R10        2.04500   0.00014  -0.00001   0.00009   0.00008   2.04509
   R11        3.26776   0.00106   0.00317   0.00125   0.00441   3.27217
    A1        2.18169  -0.00059  -0.00284  -0.00090  -0.00374   2.17795
    A2        2.05721   0.00040   0.00176   0.00057   0.00232   2.05954
    A3        2.09487  -0.00056  -0.00152  -0.00138  -0.00290   2.09198
    A4        2.13110   0.00016  -0.00024   0.00082   0.00057   2.13167
[...]
      7       17          -0.000023187   -0.000015026   -0.000000000
      8       17          -0.000000048   -0.000043706   -0.000000000
      9       17          -0.000107650   -0.000056586   -0.000000000
     10       17          -0.000052145    0.000045686   -0.000000000
     11        1           0.000004092    0.000004861   -0.000000000
 -------------------------------------------------------------------
 Cartesian Forces:  Max     0.000138002 RMS     0.000050358
 FormGI is forming the generalized inverse of G from B-inverse, IUseBI=4.

 GradGradGradGradGradGradGradGradGradGradGradGradGradGradGradGradGradGrad
 Berny optimization.
 Internal  Forces:  Max     0.000120872 RMS     0.000024975
 Search for a local minimum.
 Step number   1 out of a maximum of    2
 All quantities printed in internal units (Hartrees-Bohrs-Radians)
 Second derivative matrix not updated -- analytic derivatives used.
 ITU=  0
     Eigenvalues ---    0.01595   0.01709   0.01761   0.02509   0.02864
     Eigenvalues ---    0.03017   0.03867   0.03930   0.11138   0.14734
     Eigenvalues ---    0.15698   0.16839   0.17363   0.18083   0.22069
     Eigenvalues ---    0.22788   0.25812   0.26957   0.27768   0.30584
     Eigenvalues ---    0.35477   0.36978   0.44748   0.46151   0.48470
     Eigenvalues ---    0.50421   0.52662
 Angle between quadratic step and forces=   9.24 degrees.
 Linear search not attempted -- first point.
 Iteration  1 RMS(Cart)=  0.00007189 RMS(Int)=  0.00000000
 Iteration  2 RMS(Cart)=  0.00000000 RMS(Int)=  0.00000000
 ClnCor:  largest displacement from symmetrization is 2.16D-11 for atom    10.
 Variable       Old X    -DE/DX   Delta X   Delta X   Delta X     New X
                                 (Linear)    (Quad)   (Total)
    R1        2.58370   0.00002   0.00000   0.00005   0.00005   2.58376
    R2        2.58351  -0.00003   0.00000  -0.00009  -0.00009   2.58343
    R3        2.65005   0.00002   0.00000   0.00006   0.00006   2.65011
    R4        3.26302  -0.00004   0.00000  -0.00015  -0.00015   3.26287
    R5        2.64611   0.00006   0.00000   0.00024   0.00024   2.64635
    R6        3.25084  -0.00012   0.00000  -0.00050  -0.00050   3.25034
    R7        2.62822  -0.00001   0.00000  -0.00006  -0.00006   2.62816
    R8        3.26972  -0.00007   0.00000  -0.00028  -0.00028   3.26944
    R9        2.62832  -0.00000   0.00000  -0.00001  -0.00001   2.62831
   R10        2.04515  -0.00001   0.00000  -0.00001  -0.00001   2.04514
   R11        3.27298   0.00003   0.00000   0.00012   0.00012   3.27310
    A1        2.17727   0.00000   0.00000  -0.00003  -0.00003   2.17724
    A2        2.05994   0.00001   0.00000   0.00008   0.00008   2.06002
    A3        2.09143   0.00000   0.00000  -0.00000  -0.00000   2.09142
    A4        2.13182  -0.00001   0.00000  -0.00007  -0.00007   2.13174
    A5        2.06600  -0.00002   0.00000  -0.00011  -0.00011   2.06589
    A6        2.10177   0.00001   0.00000   0.00006   0.00006   2.10183
    A7        2.11542   0.00001   0.00000   0.00004   0.00004   2.11546
    A8        2.12398  -0.00001   0.00000  -0.00003  -0.00003   2.12395
    A9        2.10064  -0.00001   0.00000  -0.00008  -0.00008   2.10056
   A10        2.05857   0.00002   0.00000   0.00011   0.00011   2.05868
   A11        2.08259   0.00001   0.00000   0.00007   0.00007   2.08266
   A12        2.09545  -0.00001   0.00000  -0.00002  -0.00002   2.09543
   A13        2.10514  -0.00001   0.00000  -0.00005  -0.00005   2.10509
   A14        2.05659   0.00001   0.00000   0.00002   0.00002   2.05661
   A15        2.11654  -0.00001   0.00000  -0.00005  -0.00005   2.11649
   A16        2.11006   0.00001   0.00000   0.00003   0.00003   2.11009
    D1        0.00000  -0.00000   0.00000  -0.00000   0.00000   0.00000
    D2        3.14159  -0.00000   0.00000  -0.00000   0.00000   3.14159
    D3        0.00000  -0.00000   0.00000   0.00000   0.00000   0.00000
    D4        3.14159  -0.00000   0.00000   0.00000   0.00000   3.14159
    D5        0.00000   0.00000   0.00000   0.00000   0.00000   0.00000
    D6        3.14159   0.00000   0.00000   0.00000   0.00000   3.14159
    D7        3.14159   0.00000   0.00000   0.00000   0.00000   3.14159
    D8        0.00000   0.00000   0.00000   0.00000   0.00000   0.00000
    D9        0.00000  -0.00000   0.00000   0.00000   0.00000   0.00000
   D10        3.14159  -0.00000   0.00000  -0.00000   0.00000   3.14159
   D11        3.14159  -0.00000   0.00000   0.00000   0.00000   3.14159
   D12        0.00000  -0.00000   0.00000  -0.00000   0.00000   0.00000
   D13        0.00000  -0.00000   0.00000  -0.00000   0.00000   0.00000
   D14        3.14159   0.00000   0.00000   0.00000   0.00000   3.14159
   D15        3.14159  -0.00000   0.00000   0.00000   0.00000   3.14159
   D16        0.00000   0.00000   0.00000   0.00000   0.00000   0.00000
   D17        0.00000   0.00000   0.00000  -0.00000   0.00000   0.00000
   D18        3.14159   0.00000   0.00000  -0.00000   0.00000   3.14159
   D19        3.14159   0.00000   0.00000  -0.00000   0.00000   3.14159
   D20        0.00000   0.00000   0.00000  -0.00000   0.00000   0.00000
         Item               Value     Threshold  Converged?
 Maximum Force            0.000121     0.000450     YES
 RMS     Force            0.000025     0.000300     YES
 Maximum Displacement     0.000264     0.001800     YES
 RMS     Displacement     0.000072     0.001200     YES
 Predicted change in Energy=-5.942427D-08
 Optimization completed.
    -- Stationary point found.
                           ----------------------------
                           !   Optimized Parameters   !
                           ! (Angstroms and Degrees)  !
 --------------------------                            --------------------------
 ! Name  Definition              Value          Derivative Info.                !
 --------------------------------------------------------------------------------
 ! R1    R(1,2)                  1.3672         -DE/DX =    0.0                 !
 ! R2    R(1,6)                  1.3671         -DE/DX =    0.0                 !
 ! R3    R(2,3)                  1.4023         -DE/DX =    0.0                 !
 ! R4    R(2,8)                  1.7267         -DE/DX =    0.0                 !
 ! R5    R(3,4)                  1.4003         -DE/DX =    0.0001              !
 ! R6    R(3,9)                  1.7203         -DE/DX =   -0.0001              !
 ! R7    R(4,5)                  1.3908         -DE/DX =    0.0                 !
 ! R8    R(4,10)                 1.7303         -DE/DX =   -0.0001              !
 ! R9    R(5,6)                  1.3908         -DE/DX =    0.0                 !
 ! R10   R(5,11)                 1.0822         -DE/DX =    0.0                 !
 ! R11   R(6,7)                  1.732          -DE/DX =    0.0                 !
 ! A1    A(2,1,6)              124.7482         -DE/DX =    0.0                 !
 ! A2    A(1,2,3)              118.026          -DE/DX =    0.0                 !
 ! A3    A(1,2,8)              119.8299         -DE/DX =    0.0                 !
 ! A4    A(3,2,8)              122.1441         -DE/DX =    0.0                 !
 ! A5    A(2,3,4)              118.3731         -DE/DX =    0.0                 !
 ! A6    A(2,3,9)              120.4225         -DE/DX =    0.0                 !
 ! A7    A(4,3,9)              121.2044         -DE/DX =    0.0                 !
 ! A8    A(3,4,5)              121.6951         -DE/DX =    0.0                 !
 ! A9    A(3,4,10)             120.3577         -DE/DX =    0.0                 !
 ! A10   A(5,4,10)             117.9472         -DE/DX =    0.0                 !
 ! A11   A(4,5,6)              119.3238         -DE/DX =    0.0                 !
 ! A12   A(4,5,11)             120.0607         -DE/DX =    0.0                 !
 ! A13   A(6,5,11)             120.6155         -DE/DX =    0.0                 !
 ! A14   A(1,6,5)              117.8338         -DE/DX =    0.0                 !
 ! A15   A(1,6,7)              121.2688         -DE/DX =    0.0                 !
 ! A16   A(5,6,7)              120.8973         -DE/DX =    0.0                 !
 ! D1    D(6,1,2,3)              0.0            -DE/DX =    0.0                 !
 ! D2    D(6,1,2,8)            180.0            -DE/DX =    0.0                 !
 ! D3    D(2,1,6,5)              0.0            -DE/DX =    0.0                 !
 ! D4    D(2,1,6,7)            180.0            -DE/DX =    0.0                 !
 ! D5    D(1,2,3,4)              0.0            -DE/DX =    0.0                 !
 ! D6    D(1,2,3,9)            180.0            -DE/DX =    0.0                 !
 ! D7    D(8,2,3,4)            180.0            -DE/DX =    0.0                 !
 ! D8    D(8,2,3,9)              0.0            -DE/DX =    0.0                 !
 ! D9    D(2,3,4,5)              0.0            -DE/DX =    0.0                 !
 ! D10   D(2,3,4,10)           180.0            -DE/DX =    0.0                 !
 ! D11   D(9,3,4,5)            180.0            -DE/DX =    0.0                 !
 ! D12   D(9,3,4,10)             0.0            -DE/DX =    0.0                 !
 ! D13   D(3,4,5,6)              0.0            -DE/DX =    0.0                 !
 ! D14   D(3,4,5,11)           180.0            -DE/DX =    0.0                 !
 ! D15   D(10,4,5,6)           180.0            -DE/DX =    0.0                 !
 ! D16   D(10,4,5,11)            0.0            -DE/DX =    0.0                 !
 ! D17   D(4,5,6,1)              0.0            -DE/DX =    0.0                 !
 ! D18   D(4,5,6,7)            180.0            -DE/DX =    0.0                 !
 ! D19   D(11,5,6,1)           180.0            -DE/DX =    0.0                 !
 ! D20   D(11,5,6,7)             0.0            -DE/DX =    0.0                 !
 --------------------------------------------------------------------------------
 GradGradGradGradGradGradGradGradGradGradGradGradGradGradGradGradGradGrad


 ----------------------------------------------------------------------

 Electric dipole moment (input orientation):
 (Debye = 10**-18 statcoulomb cm , SI units = C m)
                  (au)            (Debye)         (10**-30 SI)
   Tot        0.338016D+00      0.859150D+00      0.286582D+01
   x         -0.539886D-01     -0.137225D+00     -0.457735D+00
   y         -0.333676D+00     -0.848120D+00     -0.282902D+01
   z          0.000000D+00      0.000000D+00      0.000000D+00

 Dipole polarizability, Alpha (input orientation).
 (esu units = cm**3 , SI units = C**2 m**2 J**-1)
 Alpha(0;0):
               (au)            (10**-24 esu)      (10**-40 SI)
   iso        0.114992D+03      0.170400D+02      0.189595D+02
   aniso      0.826015D+02      0.122403D+02      0.136191D+02
   xx         0.144877D+03      0.214686D+02      0.238870D+02
   yx         0.109482D+02      0.162235D+01      0.180511D+01
   yy         0.138580D+03      0.205354D+02      0.228487D+02
   zx         0.000000D+00      0.000000D+00      0.000000D+00
   zy         0.000000D+00      0.000000D+00      0.000000D+00
   zz         0.615181D+02      0.911604D+01      0.101430D+02

 ----------------------------------------------------------------------

 Dipole orientation:
     6         -5.79988079          0.93841778          0.75374791
     6         -3.94437013          0.63819709         -1.01895455
     6         -1.46572432          0.23715345         -0.17145570
     6         -1.02461816          0.16578270          2.43665220
     6         -2.97025150          0.48058519          4.17531017
     6         -5.41962636          0.87689280          3.30838323
    17         -7.90034676          1.27827211          5.40536058
    17         -4.69594399          0.75980136         -4.19191220
    17          0.95891881         -0.15515258         -2.30104344
    17          1.99602931         -0.32295653          3.58898163
     1         -2.57270778          0.41626282          6.18041932

 Electric dipole moment (dipole orientation):
 (Debye = 10**-18 statcoulomb cm , SI units = C m)
                  (au)            (Debye)         (10**-30 SI)
   Tot        0.338016D+00      0.859150D+00      0.286582D+01
   x          0.000000D+00      0.000000D+00      0.000000D+00
   y          0.000000D+00      0.000000D+00      0.000000D+00
   z          0.338016D+00      0.859150D+00      0.286582D+01

 Dipole polarizability, Alpha (dipole orientation).
 (esu units = cm**3 , SI units = C**2 m**2 J**-1)
 Alpha(0;0):
               (au)            (10**-24 esu)      (10**-40 SI)
   iso        0.114992D+03      0.170400D+02      0.189595D+02
   aniso      0.826015D+02      0.122403D+02      0.136191D+02
   xx         0.139230D+03      0.206317D+02      0.229558D+02
   yx        -0.125737D+02     -0.186323D+01     -0.207312D+01
   yy         0.635525D+02      0.941751D+01      0.104784D+02
   zx        -0.112364D+02     -0.166506D+01     -0.185263D+01
   zy         0.181804D+01      0.269406D+00      0.299755D+00
   zz         0.142193D+03      0.210708D+02      0.234444D+02

 ----------------------------------------------------------------------
 1\1\GINC-SH02-01N56\Freq\UM062X\6-311++G(d,p)\C6H1Cl4(2)\JLAPIER\10-De
 c-2025\0\\#N Geom=AllCheck Guess=TCheck SCRF=Check GenChk UM062X/6-311
 ++G(d,p) Freq\\Neutral Radical (removed 2) 1_345\\0,2\C,-3.1328725718,
 0.1028437341,0.\C,-2.0011473126,0.8700045268,0.\C,-0.7611362332,0.2150
 618523,0.\C,-0.7481538536,-1.1851387852,0.\C,-1.9246924896,-1.92679893
 46,0.\C,-3.1475719623,-1.2642135376,0.\Cl,-4.6375521437,-2.1472393904,
 0.\Cl,-2.1306802281,2.5918558589,0.\Cl,0.7019254091,1.1199242061,0.\Cl
 ,0.7529074459,-2.0457264748,0.\H,-1.8837960601,-3.0082730556,0.\\Versi
 on=ES64L-G16RevB.01\State=2-A'\HF=-2069.8982757\S2=0.763458\S2-1=0.\S2
 A=0.75008\RMSD=2.372e-09\RMSF=5.036e-05\ZeroPoint=0.050167\Thermal=0.0
 59188\Dipole=-0.0539886,-0.3336762,0.\DipoleDeriv=-0.2460643,-0.110966
 8,0.,-0.06904,-0.3011041,0.,0.,0.,-0.0562663,0.00486,-0.0988501,0.,-0.
 1909254,1.0573386,0.,0.,0.,0.0564865,0.5802888,0.5724944,0.,0.5763042,
 0.0164399,0.,0.,0.,-0.0253401,0.7069352,-0.5814587,0.,-0.5225682,0.284
 4997,0.,0.,0.,0.0246285,-0.3526634,0.023655,0.,-0.0259091,-0.1647565,0
 .,0.,0.,-0.1391846,0.9271631,0.4813697,0.,0.5258668,0.4630982,0.,0.,0.
 ,0.0662121,-0.6262097,-0.325721,0.,-0.3552825,-0.2778353,0.,0.,0.,-0.0
 234713,-0.0303828,0.0603136,0.,0.075291,-0.7334572,0.,0.,0.,-0.0064835
 ,-0.5217784,-0.3301268,0.,-0.3229353,-0.1827956,0.,0.,0.,-0.0099034,-0
 .5209144,0.3057839,0.,0.3145529,-0.2296104,0.,0.,0.,-0.0293653,0.07876
 59,0.003507,0.,-0.0053544,0.0681827,0.,0.,0.,0.1426872\Polar=144.87704
 13,10.9481844,138.5795572,0.,0.,61.5181037\Quadrupole=-1.246187,2.1143
 783,-0.8681913,0.2144831,0.,0.\PG=CS [SG(C6H1Cl4)]\NImag=0\\0.42311572
 ,0.14500176,0.62193046,0.,0.,0.07339788,-0.27864586,-0.11264448,0.,0.6
 0435114,-0.14020327,-0.16692720,0.,0.04433392,0.54861542,0.,0.,-0.0588
 2453,0.,0.,0.12247929,-0.06136847,-0.04516925,0.,-0.24920297,0.1237268
 8,0.,0.56682537,0.02620671,0.07106848,0.,0.03857962,-0.13909352,0.,-0.
 01892475,0.59327071,0.,0.,0.01968990,0.,0.,-0.06833473,0.,0.,0.1173669
 2,-0.02195826,-0.03630275,0.,0.03637904,0.02547580,0.,-0.10044801,0.03
 798500,0.,0.57484744,-0.03480502,-0.07032418,0.,0.09621241,-0.01968467
 ,0.,-0.03858336,-0.29958298,0.,0.04614580,0.60608631,0.,0.,-0.00689841
 ,0.,0.,0.01274118,0.,0.,-0.06655278,0.,0.,0.12542861,0.03699892,0.0911
 0484,0.,-0.08186516,-0.00391436,0.,0.04093501,-0.08479019,0.,-0.256903
 16,-0.06407462,0.,0.66050929,0.02487527,-0.03235166,0.,-0.00430009,0.0
 0358454,0.,-0.02184941,-0.02752523,0.,-0.14235048,-0.18827906,0.,-0.00
 725185,0.76022696,0.,0.,0.01785154,0.,0.,-0.00515926,0.,0.,0.01057949,
 0.,0.,-0.06447077,0.,0.,0.12664294,-0.08543383,-0.01294006,0.,0.043334
 39,-0.03062781,0.,-0.02051391,0.04048510,0.,-0.06265772,-0.03702137,0.
 ,-0.26775666,0.14027859,0.,0.54293432,0.01603109,-0.36021150,0.,-0.082
 60990,-0.03263229,0.,0.03963176,-0.06467883,0.,0.03448577,0.07650558,0
 .,0.05238182,-0.17043442,0.,-0.02254961,0.63066134,0.,0.,-0.05818155,0
 .,0.,0.01023549,0.,0.,-0.00548496,0.,0.,0.00958454,0.,0.,-0.06563806,0
 .,0.,0.12177968,-0.01052549,-0.01942759,0.,-0.00006913,0.00214993,0.,-
 0.00004636,-0.00091593,0.,0.00092837,0.00436494,0.,-0.03794002,-0.0240
 8392,0.,-0.15024531,-0.05918081,0.,0.20020557,-0.03120241,-0.02161848,
 0.,0.00279780,-0.00213000,0.,-0.00090046,0.00165597,0.,0.00125619,-0.0
 0151914,0.,0.00311776,0.00605625,0.,-0.07236992,-0.07317578,0.,0.09905
 371,0.09106250,0.,0.,0.00226176,0.,0.,0.00340498,0.,0.,-0.00006276,0.,
 0.,0.00426404,0.,0.,0.00601458,0.,0.,-0.02353968,0.,0.,0.01098884,0.00
 567274,-0.01945390,0.,-0.03566497,0.00319071,0.,-0.00177067,0.02596453
 ,0.,-0.00360988,-0.00143748,0.,0.00095515,0.00037056,0.,-0.00322470,-0
 .00064555,0.,-0.00001776,-0.00063462,0.,0.04220175,-0.01073475,-0.0408
 4810,0.,0.02158741,-0.19017898,0.,0.00234841,-0.03283560,0.,0.00154046
 ,0.00277451,0.,0.00125161,-0.00294774,0.,-0.00100352,0.00303060,0.,-0.
 00042138,-0.00085092,0.,-0.01611137,0.26227428,0.,0.,0.00254031,0.,0.,
 -0.02302133,0.,0.,0.00599762,0.,0.,0.00303627,0.,0.,-0.00013598,0.,0.,
 0.00323871,0.,0.,-0.00030033,0.,0.,0.00991884,-0.00306976,0.00383976,0
 .,-0.03852013,-0.02235249,0.,-0.15415032,-0.07236346,0.,-0.01617431,-0
 .01080616,0.,0.00210855,0.00015312,0.,0.00136752,0.00019915,0.,-0.0016
 0694,-0.00103414,0.,-0.00447810,0.00062932,0.,0.21182507,0.00112280,-0
 .00030492,0.,0.00008529,0.00040702,0.,-0.07138272,-0.08304091,0.,-0.03
 297135,-0.02030796,0.,0.00392037,-0.00328351,0.,-0.00016490,0.00034362
 ,0.,-0.00103612,-0.00050606,0.,0.00753564,0.00069780,0.,0.09772642,0.1
 1406659,0.,0.,0.00366870,0.,0.,0.00413706,0.,0.,-0.02206784,0.,0.,0.00
 295864,0.,0.,0.00366996,0.,0.,-0.00052743,0.,0.,-0.00021515,0.,0.,-0.0
 0135391,0.,0.,0.01063691,-0.00105442,0.00241722,0.,0.00098825,-0.00084
 613,0.,-0.01684708,0.00901984,0.,-0.15378324,0.06614552,0.,-0.04350690
 ,0.02198913,0.,0.00125655,-0.00474614,0.,-0.00183291,-0.00017421,0.,-0
 .00018219,0.00080664,0.,0.00307195,-0.00339092,0.,0.21175289,0.0013217
 5,0.00027771,0.,-0.00397045,-0.00270769,0.,0.03302725,-0.01953621,0.,0
 .06181792,-0.07509324,0.,-0.00224875,0.00577197,0.,-0.00205502,-0.0007
 0314,0.,0.00006469,0.00022254,0.,0.00123746,-0.00123470,0.,0.00405053,
 -0.00789717,0.,-0.09220403,0.10011341,0.,0.,-0.00076835,0.,0.,0.003584
 31,0.,0.,0.00366399,0.,0.,-0.02298032,0.,0.,0.00469698,0.,0.,0.0045482
 0,0.,0.,-0.00002747,0.,0.,-0.00001217,0.,0.,-0.00115641,0.,0.,0.011222
 87,-0.00373130,0.00357445,0.,-0.00108460,-0.00093317,0.,-0.00341259,-0
 .00124647,0.,0.00337974,-0.02614066,0.,-0.05353502,0.01216909,0.,0.000
 93934,0.02700242,0.,0.00114998,0.00009030,0.,0.00011862,0.00010719,0.,
 -0.00037352,-0.00144451,0.,0.00013710,-0.00104136,0.,0.05641226,0.0023
 8607,-0.00069060,0.,-0.00007153,0.00074737,0.,-0.00192434,0.00029811,0
 .,0.00291764,-0.01057517,0.,0.01050338,-0.35081809,0.,-0.00203148,-0.0
 0870517,0.,-0.00056752,0.00080310,0.,-0.00001596,0.00011886,0.,-0.0000
 4206,-0.00017449,0.,0.00098309,0.00078652,0.,-0.01213728,0.36820957,0.
 ,0.,0.00526276,0.,0.,-0.00124247,0.,0.,0.00520517,0.,0.,0.00288900,0.,
 0.,-0.03405143,0.,0.,0.00398507,0.,0.,-0.00278881,0.,0.,0.00009197,0.,
 0.,0.00024946,0.,0.,-0.00277164,0.,0.,0.02317090\\0.00002415,0.0000353
 1,0.,0.00002174,-0.00004245,0.,-0.00013800,-0.00013585,0.,-0.00004389,
 0.00012427,0.,-0.00000714,-0.00002486,0.,-0.00003581,-0.00002120,0.,0.
 00002319,0.00001503,0.,0.00000005,0.00004371,0.,0.00010765,0.00005659,
 0.,0.00005214,-0.00004569,0.,-0.00000409,-0.00000486,0.\\\@


 WHEN HAVING A MEETING OF THE MINDS,
 MAKE SURE YOU HAVE THE EQUIPMENT FOR IT.
 Job cpu time:       0 days  0 hours 55 minutes  8.5 seconds.
 Elapsed time:       0 days  0 hours 13 minutes 50.4 seconds.
 File lengths (MBytes):  RWF=    206 Int=      0 D2E=      0 Chk=     34 Scr=      1
 Normal termination of Gaussian 16 at Wed Dec 10 11:30:49 2025.
