 Entering Gaussian System, Link 0=g16
 Initial command:
 /share/software/user/restricted/gaussian/g16.B01/l1.exe "/home/users/jlapier/Chloroaromatics/Gau-19687.inp" -scrdir="/home/users/jlapier/Chloroaromatics/"
 Entering Link 1 = /share/software/user/restricted/gaussian/g16.B01/l1.exe PID=     19688.
  
 Copyright (c) 1988-2017, Gaussian, Inc.  All Rights Reserved.
  
 This is part of the Gaussian(R) 16 program.  It is based on
 the Gaussian(R) 09 system (copyright 2009, Gaussian, Inc.),
 the Gaussian(R) 03 system (copyright 2003, Gaussian, Inc.),
 the Gaussian(R) 98 system (copyright 1998, Gaussian, Inc.),
 the Gaussian(R) 94 system (copyright 1995, Gaussian, Inc.),
 the Gaussian 92(TM) system (copyright 1992, Gaussian, Inc.),
 the Gaussian 90(TM) system (copyright 1990, Gaussian, Inc.),
 the Gaussian 88(TM) system (copyright 1988, Gaussian, Inc.),
 the Gaussian 86(TM) system (copyright 1986, Carnegie Mellon
 University), and the Gaussian 82(TM) system (copyright 1983,
 Carnegie Mellon University). Gaussian is a federally registered
 trademark of Gaussian, Inc.
  
 This software contains proprietary and confidential information,
 including trade secrets, belonging to Gaussian, Inc.
  
 This software is provided under written license and may be
 used, copied, transmitted, or stored only in accord with that
 written license.
  
 The following legend is applicable only to US Government
 contracts under FAR:
  
                    RESTRICTED RIGHTS LEGEND
  
 Use, reproduction and disclosure by the US Government is
 subject to restrictions as set forth in subparagraphs (a)
 and (c) of the Commercial Computer Software - Restricted
 Rights clause in FAR 52.227-19.
  
 Gaussian, Inc.
 340 Quinnipiac St., Bldg. 40, Wallingford CT 06492
  
  
 ---------------------------------------------------------------
 Warning -- This program may not be used in any manner that
 competes with the business of Gaussian, Inc. or will provide
 assistance to any competitor of Gaussian, Inc.  The licensee
 of this program is prohibited from giving any competitor of
 Gaussian, Inc. access to this program.  By using this program,
 the user acknowledges that Gaussian, Inc. is engaged in the
 business of creating and licensing software in the field of
 computational chemistry and represents and warrants to the
 licensee that it is not a competitor of Gaussian, Inc. and that
 it will not use this program in any manner prohibited above.
 ---------------------------------------------------------------
  

 Cite this work as:
 Gaussian 16, Revision B.01,
 M. J. Frisch, G. W. Trucks, H. B. Schlegel, G. E. Scuseria, 
 M. A. Robb, J. R. Cheeseman, G. Scalmani, V. Barone, 
 G. A. Petersson, H. Nakatsuji, X. Li, M. Caricato, A. V. Marenich, 
 J. Bloino, B. G. Janesko, R. Gomperts, B. Mennucci, H. P. Hratchian, 
 J. V. Ortiz, A. F. Izmaylov, J. L. Sonnenberg, D. Williams-Young, 
 F. Ding, F. Lipparini, F. Egidi, J. Goings, B. Peng, A. Petrone, 
 T. Henderson, D. Ranasinghe, V. G. Zakrzewski, J. Gao, N. Rega, 
 G. Zheng, W. Liang, M. Hada, M. Ehara, K. Toyota, R. Fukuda, 
 J. Hasegawa, M. Ishida, T. Nakajima, Y. Honda, O. Kitao, H. Nakai, 
 T. Vreven, K. Throssell, J. A. Montgomery, Jr., J. E. Peralta, 
 F. Ogliaro, M. J. Bearpark, J. J. Heyd, E. N. Brothers, K. N. Kudin, 
 V. N. Staroverov, T. A. Keith, R. Kobayashi, J. Normand, 
 K. Raghavachari, A. P. Rendell, J. C. Burant, S. S. Iyengar, 
 J. Tomasi, M. Cossi, J. M. Millam, M. Klene, C. Adamo, R. Cammi, 
 J. W. Ochterski, R. L. Martin, K. Morokuma, O. Farkas, 
 J. B. Foresman, and D. J. Fox, Gaussian, Inc., Wallingford CT, 2016.
 
 ******************************************
 Gaussian 16:  ES64L-G16RevB.01 20-Dec-2017
                 9-Dec-2025 
 ******************************************
 %mem=8GB
 %nprocshare=4
 Will use up to    4 processors via shared memory.
 %oldchk=geometry_chks/123456ClBz.chk
 %chk=frequency_chks/123456ClBz_Freq.chk
 Copying data from "geometry_chks/123456ClBz.chk" to current chk file "frequency_chks/123456ClBz_Freq.chk"
 IOpt=  2 FromEx=T IUOpen= 4 IOptOp= 5 NList=   0 IFRang= 0 IUIn= 4 IUOut= 2.
 -------------------------------------------------------
 # opt freq 6-311++g(d,p) guess=read geom=allcheck m062x
 -------------------------------------------------------
 1/18=20,19=15,26=3,29=7,38=1/1,3;
 2/9=110,12=2,40=1/2;
 3/5=4,6=6,7=1111,11=2,14=-4,25=1,30=1,71=1,74=-55,116=-2/1,2,3;
 4/5=1/1;
 5/5=2,38=6/2;
 6/7=2,8=2,9=2,10=2,28=1/1;
 7//1,2,3,16;
 1/18=20,19=15,26=3/3(2);
 2/9=110/2;
 99//99;
 2/9=110/2;
 3/5=4,6=6,7=1111,11=2,14=-2,25=1,30=1,71=1,74=-55/1,2,3;
 4/5=5,16=3,69=1/1;
 5/5=2,38=5/2;
 7//1,2,3,16;
 1/18=20,19=15,26=3/3(-5);
 2/9=110/2;
 6/7=2,8=2,9=2,10=2,19=2,28=1/1;
 99/9=1/99;
 Structure from the checkpoint file:  "frequency_chks/123456ClBz_Freq.chk"
 -------------------------
 6-Chloro-Benzene (123456)
 -------------------------
 Charge =  0 Multiplicity = 1
 Redundant internal coordinates found in file.  (old form).
 C,0,-3.2078185683,0.1986395517,0.
 C,0,-2.0114534777,0.93388815,0.
 C,0,-0.7765263565,0.2654293193,0.
 C,0,-0.737964668,-1.1382774113,0.
 C,0,-1.9343304707,-1.8735263904,0.
 C,0,-3.1692567442,-1.2050680954,0.
 Cl,0,-4.6109891425,-2.0911114576,0.
 Cl,0,-4.6960212219,1.0041939792,0.
 Cl,0,0.7502371109,-1.9438328224,0.
 Cl,0,-1.887859218,-3.5651245505,0.
 Cl,0,-2.0579228675,2.6254865845,0.
 Cl,0,0.6652056197,1.1514731506,0.
 Recover connectivity data from disk.

 GradGradGradGradGradGradGradGradGradGradGradGradGradGradGradGradGradGrad
 Berny optimization.
 Initialization pass.
                           ----------------------------
                           !    Initial Parameters    !
                           ! (Angstroms and Degrees)  !
 --------------------------                            --------------------------
 ! Name  Definition              Value          Derivative Info.                !
 --------------------------------------------------------------------------------
 ! R1    R(1,2)                  1.4042         estimate D2E/DX2                !
 ! R2    R(1,6)                  1.4042         estimate D2E/DX2                !
 ! R3    R(1,8)                  1.6922         estimate D2E/DX2                !
 ! R4    R(2,3)                  1.4042         estimate D2E/DX2                !
 ! R5    R(2,11)                 1.6922         estimate D2E/DX2                !
 ! R6    R(3,4)                  1.4042         estimate D2E/DX2                !
 ! R7    R(3,12)                 1.6922         estimate D2E/DX2                !
 ! R8    R(4,5)                  1.4042         estimate D2E/DX2                !
 ! R9    R(4,9)                  1.6922         estimate D2E/DX2                !
 ! R10   R(5,6)                  1.4042         estimate D2E/DX2                !
 ! R11   R(5,10)                 1.6922         estimate D2E/DX2                !
 ! R12   R(6,7)                  1.6922         estimate D2E/DX2                !
 ! A1    A(2,1,6)              120.0            estimate D2E/DX2                !
 ! A2    A(2,1,8)              120.0            estimate D2E/DX2                !
 ! A3    A(6,1,8)              120.0            estimate D2E/DX2                !
 ! A4    A(1,2,3)              120.0            estimate D2E/DX2                !
 ! A5    A(1,2,11)             120.0            estimate D2E/DX2                !
 ! A6    A(3,2,11)             120.0            estimate D2E/DX2                !
 ! A7    A(2,3,4)              120.0            estimate D2E/DX2                !
 ! A8    A(2,3,12)             120.0            estimate D2E/DX2                !
 ! A9    A(4,3,12)             120.0            estimate D2E/DX2                !
 ! A10   A(3,4,5)              120.0            estimate D2E/DX2                !
 ! A11   A(3,4,9)              120.0            estimate D2E/DX2                !
 ! A12   A(5,4,9)              120.0            estimate D2E/DX2                !
 ! A13   A(4,5,6)              120.0            estimate D2E/DX2                !
 ! A14   A(4,5,10)             120.0            estimate D2E/DX2                !
 ! A15   A(6,5,10)             120.0            estimate D2E/DX2                !
 ! A16   A(1,6,5)              120.0            estimate D2E/DX2                !
 ! A17   A(1,6,7)              120.0            estimate D2E/DX2                !
 ! A18   A(5,6,7)              120.0            estimate D2E/DX2                !
 ! D1    D(6,1,2,3)              0.0            estimate D2E/DX2                !
 ! D2    D(6,1,2,11)           180.0            estimate D2E/DX2                !
 ! D3    D(8,1,2,3)            180.0            estimate D2E/DX2                !
 ! D4    D(8,1,2,11)             0.0            estimate D2E/DX2                !
 ! D5    D(2,1,6,5)              0.0            estimate D2E/DX2                !
 ! D6    D(2,1,6,7)            180.0            estimate D2E/DX2                !
 ! D7    D(8,1,6,5)            180.0            estimate D2E/DX2                !
 ! D8    D(8,1,6,7)              0.0            estimate D2E/DX2                !
 ! D9    D(1,2,3,4)              0.0            estimate D2E/DX2                !
 ! D10   D(1,2,3,12)           180.0            estimate D2E/DX2                !
 ! D11   D(11,2,3,4)           180.0            estimate D2E/DX2                !
 ! D12   D(11,2,3,12)            0.0            estimate D2E/DX2                !
 ! D13   D(2,3,4,5)              0.0            estimate D2E/DX2                !
 ! D14   D(2,3,4,9)            180.0            estimate D2E/DX2                !
 ! D15   D(12,3,4,5)           180.0            estimate D2E/DX2                !
 ! D16   D(12,3,4,9)             0.0            estimate D2E/DX2                !
 ! D17   D(3,4,5,6)              0.0            estimate D2E/DX2                !
 ! D18   D(3,4,5,10)           180.0            estimate D2E/DX2                !
 ! D19   D(9,4,5,6)            180.0            estimate D2E/DX2                !
 ! D20   D(9,4,5,10)             0.0            estimate D2E/DX2                !
 ! D21   D(4,5,6,1)              0.0            estimate D2E/DX2                !
 ! D22   D(4,5,6,7)            180.0            estimate D2E/DX2                !
 ! D23   D(10,5,6,1)           180.0            estimate D2E/DX2                !
 ! D24   D(10,5,6,7)             0.0            estimate D2E/DX2                !
 --------------------------------------------------------------------------------
 Trust Radius=3.00D-01 FncErr=1.00D-07 GrdErr=1.00D-06 EigMax=2.50D+02 EigMin=1.00D-04
 Number of steps in this run=     64 maximum allowed number of steps=    100.
 GradGradGradGradGradGradGradGradGradGradGradGradGradGradGradGradGradGrad

                          Input orientation:                          
 ---------------------------------------------------------------------
 Center     Atomic      Atomic             Coordinates (Angstroms)
 Number     Number       Type             X           Y           Z
 ---------------------------------------------------------------------
      1          6           0       -3.207819    0.198640    0.000000
      2          6           0       -2.011453    0.933888    0.000000
      3          6           0       -0.776526    0.265429    0.000000
      4          6           0       -0.737965   -1.138277    0.000000
      5          6           0       -1.934330   -1.873526    0.000000
      6          6           0       -3.169257   -1.205068    0.000000
      7         17           0       -4.610989   -2.091111    0.000000
      8         17           0       -4.696021    1.004194    0.000000
      9         17           0        0.750237   -1.943833    0.000000
     10         17           0       -1.887859   -3.565125    0.000000
     11         17           0       -2.057923    2.625487    0.000000
     12         17           0        0.665206    1.151473    0.000000
 ---------------------------------------------------------------------
                    Distance matrix (angstroms):
                    1          2          3          4          5
     1  C    0.000000
     2  C    1.404236   0.000000
     3  C    2.432209   1.404237   0.000000
     4  C    2.808474   2.432210   1.404236   0.000000
     5  C    2.432210   2.808474   2.432209   1.404237   0.000000
     6  C    1.404237   2.432209   2.808473   2.432209   1.404236
     7  Cl   2.685488   3.988510   4.500710   3.988510   2.685488
     8  Cl   1.692237   2.685488   3.988510   4.500711   3.988510
     9  Cl   4.500710   3.988510   2.685488   1.692236   2.685488
    10  Cl   3.988510   4.500710   3.988509   2.685488   1.692236
    11  Cl   2.685488   1.692237   2.685488   3.988510   4.500710
    12  Cl   3.988510   2.685488   1.692237   2.685488   3.988510
                    6          7          8          9         10
     6  C    0.000000
     7  Cl   1.692237   0.000000
     8  Cl   2.685489   3.096473   0.000000
     9  Cl   3.988509   5.363249   6.192947   0.000000
    10  Cl   2.685488   3.096474   5.363250   3.096472   0.000000
    11  Cl   3.988510   5.363249   3.096474   5.363249   6.192947
    12  Cl   4.500710   6.192946   5.363249   3.096474   5.363248
                   11         12
    11  Cl   0.000000
    12  Cl   3.096473   0.000000
 Stoichiometry    C6Cl6
 Framework group  CS[SG(C6Cl6)]
 Deg. of freedom    21
 Full point group                 CS      NOp   2
 Largest Abelian subgroup         CS      NOp   2
 Largest concise Abelian subgroup C1      NOp   1
                         Standard orientation:                         
 ---------------------------------------------------------------------
 Center     Atomic      Atomic             Coordinates (Angstroms)
 Number     Number       Type             X           Y           Z
 ---------------------------------------------------------------------
      1          6           0       -1.216105    0.702118    0.000000
      2          6           0       -1.216105   -0.702118    0.000000
      3          6           0        0.000000   -1.404237    0.000000
      4          6           0        1.216105   -0.702119    0.000000
      5          6           0        1.216105    0.702119    0.000000
      6          6           0        0.000000    1.404237    0.000000
      7         17           0        0.000000    3.096473    0.000000
      8         17           0       -2.681625    1.548237    0.000000
      9         17           0        2.681625   -1.548236    0.000000
     10         17           0        2.681625    1.548236    0.000000
     11         17           0       -2.681625   -1.548237    0.000000
     12         17           0       -0.000000   -3.096473    0.000000
 ---------------------------------------------------------------------
 Rotational constants (GHZ):           0.4693136           0.4693135           0.2346568
 Standard basis: 6-311++G(d,p) (5D, 7F)
 There are   240 symmetry adapted cartesian basis functions of A'  symmetry.
 There are    84 symmetry adapted cartesian basis functions of A"  symmetry.
 There are   228 symmetry adapted basis functions of A'  symmetry.
 There are    84 symmetry adapted basis functions of A"  symmetry.
   312 basis functions,   534 primitive gaussians,   324 cartesian basis functions
    69 alpha electrons       69 beta electrons
       nuclear repulsion energy      1357.1699306744 Hartrees.
 NAtoms=   12 NActive=   12 NUniq=   12 SFac= 1.00D+00 NAtFMM=   60 NAOKFM=F Big=F
 Integral buffers will be    131072 words long.
 Raffenetti 2 integral format.
 Two-electron integral symmetry is turned on.
 One-electron integrals computed using PRISM.
 NBasis=   312 RedAO= T EigKep=  1.70D-06  NBF=   228    84
 NBsUse=   310 1.00D-06 EigRej=  2.37D-07 NBFU=   226    84
 Initial guess from the checkpoint file:  "frequency_chks/123456ClBz_Freq.chk"
 B after Tr=     0.000000    0.000000    0.000000
         Rot=    1.000000   -0.000000    0.000000   -0.000000 Ang=   0.00 deg.
 Initial guess orbital symmetries:
       Occupied  (A') (A') (A') (A') (A') (A') (A') (A') (A') (A')
                 (A') (A') (A') (A') (A') (A') (A") (A') (A') (A")
                 (A") (A") (A") (A") (A') (A') (A') (A') (A') (A')
                 (A") (A") (A") (A") (A") (A') (A') (A') (A') (A')
                 (A') (A") (A') (A') (A') (A') (A') (A') (A') (A')
                 (A') (A') (A') (A') (A') (A') (A') (A') (A') (A')
                 (A') (A') (A') (A') (A') (A') (A') (A') (A')
       Virtual   (A') (A') (A') (A') (A') (A') (A') (A') (A') (A')
                 (A') (A') (A') (A') (A') (A') (A') (A') (A') (A')
                 (A') (A') (A') (A') (A') (A') (A') (A') (A') (A')
                 (A') (A') (A') (A') (A') (A') (A') (A') (A') (A')
                 (A') (A') (A') (A') (A') (A') (A') (A') (A') (A')
                 (A') (A') (A') (A') (A') (A') (A') (A') (A') (A')
                 (A') (A') (A') (A') (A') (A') (A') (A') (A') (A')
                 (A') (A') (A') (A') (A') (A') (A') (A') (A') (A')
                 (A') (A') (A') (A') (A') (A') (A') (A') (A') (A')
                 (A') (A') (A') (A') (A') (A') (A') (A') (A') (A')
                 (A') (A') (A') (A') (A') (A') (A') (A') (A') (A')
                 (A') (A') (A') (A') (A') (A') (A') (A') (A') (A')
                 (A') (A') (A') (A') (A') (A') (A') (A') (A') (A')
                 (A') (A') (A') (A') (A') (A') (A') (A') (A') (A')
                 (A') (A') (A') (A') (A') (A') (A') (A') (A') (A')
                 (A') (A') (A') (A') (A') (A') (A') (A') (A') (A')
                 (A') (A') (A') (A') (A') (A') (A') (A') (A') (A")
                 (A") (A") (A") (A") (A") (A") (A") (A") (A") (A")
                 (A") (A") (A") (A") (A") (A") (A") (A") (A") (A")
                 (A") (A") (A") (A") (A") (A") (A") (A") (A") (A")
                 (A") (A") (A") (A") (A") (A") (A") (A") (A") (A")
                 (A") (A") (A") (A") (A") (A") (A") (A") (A") (A")
                 (A") (A") (A") (A") (A") (A") (A") (A") (A") (A")
                 (A") (A") (A") (A") (A") (A") (A") (A") (A") (A")
                 (A")
 Requested convergence on RMS density matrix=1.00D-08 within 128 cycles.
 Requested convergence on MAX density matrix=1.00D-06.
 Requested convergence on             energy=1.00D-06.
 No special actions if energy rises.
 Restarting incremental Fock formation.
 SCF Done:  E(RM062X) =  -2989.76810732     A.U. after   23 cycles
            NFock= 23  Conv=0.66D-08     -V/T= 2.0021

 **********************************************************************

            Population analysis using the SCF Density.

 **********************************************************************

 Orbital symmetries:
       Occupied  (A') (A') (A') (A') (A') (A') (A') (A') (A') (A')
                 (A') (A') (A') (A') (A') (A') (A') (A') (A') (A')
                 (A') (A') (A') (A') (A") (A") (A") (A") (A") (A")
                 (A') (A') (A') (A') (A') (A') (A') (A') (A') (A')
                 (A') (A') (A') (A') (A') (A') (A') (A') (A') (A')
                 (A") (A') (A') (A') (A') (A") (A") (A") (A") (A')
                 (A') (A') (A") (A') (A') (A") (A') (A") (A")
       Virtual   (A") (A") (A') (A') (A') (A') (A') (A') (A") (A')
                 (A') (A') (A') (A") (A") (A') (A') (A') (A") (A")
                 (A') (A') (A") (A") (A') (A') (A') (A") (A") (A")
                 (A') (A') (A') (A') (A') (A') (A") (A") (A') (A')
                 (A') (A') (A') (A') (A') (A') (A') (A') (A') (A")
                 (A') (A') (A') (A') (A') (A') (A') (A') (A') (A')
                 (A') (A") (A') (A") (A") (A') (A') (A') (A') (A')
                 (A") (A") (A') (A') (A') (A") (A') (A') (A") (A')
                 (A") (A") (A") (A") (A') (A') (A') (A') (A') (A')
                 (A") (A") (A') (A') (A") (A") (A') (A') (A") (A")
                 (A") (A') (A') (A') (A') (A") (A') (A") (A") (A")
                 (A") (A') (A') (A') (A') (A') (A') (A') (A') (A')
                 (A") (A') (A') (A') (A') (A') (A') (A") (A') (A')
                 (A') (A') (A') (A") (A") (A") (A') (A') (A') (A')
                 (A') (A") (A") (A') (A') (A') (A') (A') (A') (A')
                 (A") (A") (A') (A') (A') (A') (A") (A") (A") (A')
                 (A') (A') (A') (A") (A") (A") (A") (A") (A") (A')
                 (A') (A") (A') (A') (A') (A') (A') (A') (A') (A')
                 (A') (A') (A') (A") (A') (A') (A') (A") (A") (A")
                 (A") (A') (A") (A') (A') (A') (A') (A') (A') (A')
                 (A') (A') (A') (A') (A') (A') (A') (A') (A') (A')
                 (A') (A') (A') (A') (A') (A') (A') (A") (A") (A")
                 (A") (A") (A") (A') (A') (A') (A') (A') (A') (A')
                 (A') (A') (A') (A') (A') (A') (A') (A') (A') (A')
                 (A')
 The electronic state is 1-A'.
 Alpha  occ. eigenvalues -- -102.70836-102.70836-102.70836-102.70836-102.70834
 Alpha  occ. eigenvalues -- -102.70834 -10.65707 -10.65675 -10.65675 -10.65602
 Alpha  occ. eigenvalues --  -10.65602 -10.65566  -9.85176  -9.85176  -9.85175
 Alpha  occ. eigenvalues --   -9.85175  -9.85173  -9.85172  -7.57707  -7.57707
 Alpha  occ. eigenvalues --   -7.57706  -7.57706  -7.57705  -7.57705  -7.57004
 Alpha  occ. eigenvalues --   -7.57004  -7.57004  -7.57004  -7.57001  -7.57001
 Alpha  occ. eigenvalues --   -7.56961  -7.56961  -7.56961  -7.56961  -7.56959
 Alpha  occ. eigenvalues --   -7.56959  -1.09314  -1.04432  -1.04432  -0.99296
 Alpha  occ. eigenvalues --   -0.99296  -0.96950  -0.93390  -0.83604  -0.83604
 Alpha  occ. eigenvalues --   -0.71838  -0.71838  -0.64782  -0.61064  -0.57097
 Alpha  occ. eigenvalues --   -0.56008  -0.54430  -0.54430  -0.51134  -0.51133
 Alpha  occ. eigenvalues --   -0.49235  -0.49235  -0.43705  -0.43705  -0.42633
 Alpha  occ. eigenvalues --   -0.42633  -0.42425  -0.42214  -0.40491  -0.40491
 Alpha  occ. eigenvalues --   -0.38492  -0.37467  -0.31598  -0.31597
 Alpha virt. eigenvalues --   -0.03275  -0.03275  -0.01714   0.01160   0.01846
 Alpha virt. eigenvalues --    0.01849   0.03955   0.03956   0.04597   0.05232
 Alpha virt. eigenvalues --    0.05601   0.05819   0.05825   0.07046   0.07053
 Alpha virt. eigenvalues --    0.08669   0.09862   0.09866   0.10022   0.10025
 Alpha virt. eigenvalues --    0.10678   0.10679   0.10753   0.10907   0.11563
 Alpha virt. eigenvalues --    0.11570   0.13271   0.15250   0.15501   0.15505
 Alpha virt. eigenvalues --    0.15535   0.15824   0.15825   0.16133   0.16135
 Alpha virt. eigenvalues --    0.17663   0.19245   0.19250   0.19378   0.19387
 Alpha virt. eigenvalues --    0.20414   0.21324   0.22595   0.22596   0.22975
 Alpha virt. eigenvalues --    0.25220   0.25226   0.26735   0.26740   0.27228
 Alpha virt. eigenvalues --    0.28479   0.28481   0.28727   0.28728   0.29773
 Alpha virt. eigenvalues --    0.29777   0.30212   0.30212   0.30454   0.40193
 Alpha virt. eigenvalues --    0.40414   0.42723   0.43065   0.45318   0.45325
 Alpha virt. eigenvalues --    0.47375   0.47826   0.47826   0.49610   0.49615
 Alpha virt. eigenvalues --    0.49705   0.49711   0.50097   0.50632   0.50640
 Alpha virt. eigenvalues --    0.51586   0.51974   0.51982   0.52786   0.58552
 Alpha virt. eigenvalues --    0.59769   0.59770   0.62790   0.62792   0.63907
 Alpha virt. eigenvalues --    0.63909   0.66545   0.67092   0.67909   0.67910
 Alpha virt. eigenvalues --    0.69418   0.73684   0.76769   0.81324   0.82897
 Alpha virt. eigenvalues --    0.82898   0.86119   0.86119   0.87583   0.88262
 Alpha virt. eigenvalues --    0.88262   0.88573   0.88573   0.89824   0.89824
 Alpha virt. eigenvalues --    0.90152   0.90219   0.90685   0.90685   0.94593
 Alpha virt. eigenvalues --    0.94593   0.95257   0.95258   0.95343   0.96734
 Alpha virt. eigenvalues --    0.96869   0.96869   0.97571   0.97572   0.98581
 Alpha virt. eigenvalues --    1.00211   1.01213   1.01214   1.04887   1.05888
 Alpha virt. eigenvalues --    1.11223   1.11223   1.13341   1.14409   1.22597
 Alpha virt. eigenvalues --    1.22598   1.22867   1.22868   1.28774   1.32486
 Alpha virt. eigenvalues --    1.32486   1.32972   1.33447   1.33447   1.34551
 Alpha virt. eigenvalues --    1.34552   1.36008   1.36008   1.40647   1.47119
 Alpha virt. eigenvalues --    1.47120   1.55685   1.65603   1.72540   1.72540
 Alpha virt. eigenvalues --    1.78387   1.78388   1.80548   1.80549   1.84945
 Alpha virt. eigenvalues --    1.84945   1.86869   1.86870   1.97337   2.12940
 Alpha virt. eigenvalues --    2.12941   2.21212   2.21213   2.24813   2.26198
 Alpha virt. eigenvalues --    2.26201   2.26291   2.30243   2.30245   2.33449
 Alpha virt. eigenvalues --    2.33450   2.35660   2.38266   2.38806   2.40298
 Alpha virt. eigenvalues --    2.41794   2.41798   2.47628   2.49459   2.49461
 Alpha virt. eigenvalues --    2.53021   2.56200   2.56202   2.63843   2.67158
 Alpha virt. eigenvalues --    2.68268   2.68268   2.79142   2.79143   2.89943
 Alpha virt. eigenvalues --    2.89944   3.00824   3.10141   3.11683   3.19971
 Alpha virt. eigenvalues --    3.19972   3.20022   3.28156   3.28156   3.56867
 Alpha virt. eigenvalues --    3.56868   3.75936   3.91917   3.91918   4.79961
 Alpha virt. eigenvalues --    9.84803   9.97384   9.97387  10.00853  10.00855
 Alpha virt. eigenvalues --   10.01345  23.29314  23.83167  23.83167  23.97363
 Alpha virt. eigenvalues --   23.97364  24.03414  25.84547  25.88701  25.88706
 Alpha virt. eigenvalues --   25.94481  25.94486  26.03952  26.14209  26.14214
 Alpha virt. eigenvalues --   26.27085  26.28906  26.28910  26.38270  26.41015
 Alpha virt. eigenvalues --   26.65886  26.65889  26.92314  26.92315  27.17799
 Alpha virt. eigenvalues --  215.93504 216.07823 216.07825 216.12027 216.12028
 Alpha virt. eigenvalues --  216.12543
          Condensed to atoms (all electrons):
               1          2          3          4          5          6
     1  C   18.563493  -2.964172  -4.929398   4.541840  -4.930723  -2.971271
     2  C   -2.964172  18.563495  -2.971274  -4.930722   4.541841  -4.929397
     3  C   -4.929398  -2.971274  18.560639  -2.971326  -4.929397   4.548316
     4  C    4.541840  -4.930722  -2.971326  18.563509  -2.964125  -4.929399
     5  C   -4.930723   4.541841  -4.929397  -2.964125  18.563504  -2.971325
     6  C   -2.971271  -4.929397   4.548316  -4.929399  -2.971325  18.560632
     7  Cl  -0.009471  -0.496671   0.569966  -0.496670  -0.009471  -0.288092
     8  Cl  -0.289497  -0.010233  -0.496905   0.569731  -0.495769  -0.008754
     9  Cl   0.569732  -0.495767  -0.008757  -0.289503  -0.010228  -0.496904
    10  Cl  -0.495767   0.569731  -0.496904  -0.010227  -0.289502  -0.008758
    11  Cl  -0.010234  -0.289498  -0.008753  -0.495769   0.569731  -0.496905
    12  Cl  -0.496670  -0.009470  -0.288095  -0.009471  -0.496670   0.569967
               7          8          9         10         11         12
     1  C   -0.009471  -0.289497   0.569732  -0.495767  -0.010234  -0.496670
     2  C   -0.496671  -0.010233  -0.495767   0.569731  -0.289498  -0.009470
     3  C    0.569966  -0.496905  -0.008757  -0.496904  -0.008753  -0.288095
     4  C   -0.496670   0.569731  -0.289503  -0.010227  -0.495769  -0.009471
     5  C   -0.009471  -0.495769  -0.010228  -0.289502   0.569731  -0.496670
     6  C   -0.288092  -0.008754  -0.496904  -0.008758  -0.496905   0.569967
     7  Cl  17.715711  -0.264801  -0.028399  -0.264801  -0.028399   0.022447
     8  Cl  -0.264801  17.716735   0.022416  -0.028258  -0.263862  -0.028399
     9  Cl  -0.028399   0.022416  17.716738  -0.263863  -0.028258  -0.264801
    10  Cl  -0.264801  -0.028258  -0.263863  17.716737   0.022416  -0.028399
    11  Cl  -0.028399  -0.263862  -0.028258   0.022416  17.716736  -0.264801
    12  Cl   0.022447  -0.028399  -0.264801  -0.028399  -0.264801  17.715712
 Mulliken charges:
               1
     1  C   -0.577862
     2  C   -0.577863
     3  C   -0.578112
     4  C   -0.577867
     5  C   -0.577866
     6  C   -0.578110
     7  Cl   0.578649
     8  Cl   0.577595
     9  Cl   0.577595
    10  Cl   0.577595
    11  Cl   0.577595
    12  Cl   0.578649
 Sum of Mulliken charges =  -0.00000
 Mulliken charges with hydrogens summed into heavy atoms:
               1
     1  C   -0.577862
     2  C   -0.577863
     3  C   -0.578112
     4  C   -0.577867
     5  C   -0.577866
     6  C   -0.578110
     7  Cl   0.578649
     8  Cl   0.577595
     9  Cl   0.577595
    10  Cl   0.577595
    11  Cl   0.577595
    12  Cl   0.578649
 Electronic spatial extent (au):  <R**2>=           3987.6054
 Charge=             -0.0000 electrons
 Dipole moment (field-independent basis, Debye):
    X=              0.0000    Y=             -0.0000    Z=              0.0000  Tot=              0.0000
 Quadrupole moment (field-independent basis, Debye-Ang):
   XX=           -107.6574   YY=           -107.6553   ZZ=           -109.6938
   XY=             -0.0000   XZ=              0.0000   YZ=              0.0000
 Traceless Quadrupole moment (field-independent basis, Debye-Ang):
   XX=              0.6781   YY=              0.6802   ZZ=             -1.3583
   XY=             -0.0000   XZ=              0.0000   YZ=              0.0000
 Octapole moment (field-independent basis, Debye-Ang**2):
  XXX=              0.0000  YYY=             -0.0000  ZZZ=              0.0000  XYY=             -0.0000
  XXY=             -0.0000  XXZ=              0.0000  XZZ=              0.0000  YZZ=             -0.0000
  YYZ=              0.0000  XYZ=              0.0000
 Hexadecapole moment (field-independent basis, Debye-Ang**3):
 XXXX=          -2359.8386 YYYY=          -2359.7933 ZZZZ=           -125.1587 XXXY=              0.0000
 XXXZ=              0.0000 YYYX=              0.0000 YYYZ=              0.0000 ZZZX=              0.0000
 ZZZY=              0.0000 XXYY=           -786.6303 XXZZ=           -442.4399 YYZZ=           -442.4297
 XXYZ=              0.0000 YYXZ=              0.0000 ZZXY=              0.0000
 N-N= 1.357169930674D+03 E-N=-9.807446434253D+03  KE= 2.983404259864D+03
 Symmetry A'   KE= 2.701234644327D+03
 Symmetry A"   KE= 2.821696155375D+02
 Calling FoFJK, ICntrl=      2127 FMM=F ISym2X=1 I1Cent= 0 IOpClX= 0 NMat=1 NMatS=1 NMatT=0.
 ***** Axes restored to original set *****
 -------------------------------------------------------------------
 Center     Atomic                   Forces (Hartrees/Bohr)
 Number     Number              X              Y              Z
 -------------------------------------------------------------------
      1        6           0.017370210   -0.009452145   -0.000000000
      2        6           0.000586811   -0.019766751   -0.000000000
      3        6          -0.016857154   -0.010359521    0.000000000
      4        6          -0.017370579    0.009451731    0.000000000
      5        6          -0.000586151    0.019766798   -0.000000000
      6        6           0.016856721    0.010360051   -0.000000000
      7       17          -0.013191458   -0.008107092   -0.000000000
      8       17          -0.013649148    0.007411521    0.000000000
      9       17           0.013649361   -0.007411522   -0.000000000
     10       17           0.000446880   -0.015525379   -0.000000000
     11       17          -0.000447032    0.015525223   -0.000000000
     12       17           0.013191537    0.008107087   -0.000000000
 -------------------------------------------------------------------
 Cartesian Forces:  Max     0.019766798 RMS     0.010262739

 GradGradGradGradGradGradGradGradGradGradGradGradGradGradGradGradGradGrad
 Berny optimization.
 FormGI is forming the generalized inverse of G from B-inverse, IUseBI=4.
 Internal  Forces:  Max     0.015531796 RMS     0.005363589
 Search for a local minimum.
 Step number   1 out of a maximum of   64
 All quantities printed in internal units (Hartrees-Bohrs-Radians)
 Mixed Optimization -- RFO/linear search
 Second derivative matrix not updated -- first step.
 ITU=  0
     Eigenvalues ---    0.02033   0.02033   0.02033   0.02033   0.02033
     Eigenvalues ---    0.02033   0.02033   0.02033   0.02033   0.25000
     Eigenvalues ---    0.25000   0.25000   0.25000   0.25000   0.25000
     Eigenvalues ---    0.25000   0.25000   0.25000   0.36841   0.36841
     Eigenvalues ---    0.36841   0.36841   0.36841   0.36841   0.41426
     Eigenvalues ---    0.41426   0.44925   0.44926   0.44926   0.44926
 RFO step:  Lambda=-4.11789575D-03 EMin= 2.03270789D-02
 Linear search not attempted -- first point.
 Iteration  1 RMS(Cart)=  0.01119690 RMS(Int)=  0.00000059
 Iteration  2 RMS(Cart)=  0.00000136 RMS(Int)=  0.00000000
 Iteration  3 RMS(Cart)=  0.00000000 RMS(Int)=  0.00000000
 ClnCor:  largest displacement from symmetrization is 3.03D-13 for atom     8.
 Variable       Old X    -DE/DX   Delta X   Delta X   Delta X     New X
                                 (Linear)    (Quad)   (Total)
    R1        2.65362  -0.00425   0.00000  -0.00938  -0.00938   2.64424
    R2        2.65362  -0.00427   0.00000  -0.00942  -0.00942   2.64421
    R3        3.19786   0.01553   0.00000   0.04169   0.04169   3.23956
    R4        2.65362  -0.00427   0.00000  -0.00942  -0.00942   2.64421
    R5        3.19786   0.01553   0.00000   0.04169   0.04169   3.23956
    R6        2.65362  -0.00427   0.00000  -0.00941  -0.00941   2.64421
    R7        3.19786   0.01548   0.00000   0.04156   0.04156   3.23943
    R8        2.65362  -0.00425   0.00000  -0.00938  -0.00938   2.64424
    R9        3.19786   0.01553   0.00000   0.04169   0.04169   3.23956
   R10        2.65362  -0.00427   0.00000  -0.00941  -0.00941   2.64421
   R11        3.19786   0.01553   0.00000   0.04169   0.04169   3.23956
   R12        3.19786   0.01548   0.00000   0.04156   0.04156   3.23943
    A1        2.09439  -0.00000   0.00000  -0.00002  -0.00002   2.09438
    A2        2.09440  -0.00003   0.00000  -0.00012  -0.00012   2.09427
    A3        2.09440   0.00003   0.00000   0.00014   0.00014   2.09453
    A4        2.09439  -0.00000   0.00000  -0.00002  -0.00002   2.09438
    A5        2.09440  -0.00003   0.00000  -0.00012  -0.00012   2.09427
    A6        2.09439   0.00003   0.00000   0.00014   0.00014   2.09453
    A7        2.09440   0.00001   0.00000   0.00003   0.00003   2.09443
    A8        2.09439  -0.00000   0.00000  -0.00002  -0.00002   2.09438
    A9        2.09440  -0.00000   0.00000  -0.00002  -0.00002   2.09438
   A10        2.09439  -0.00000   0.00000  -0.00002  -0.00002   2.09438
   A11        2.09440   0.00003   0.00000   0.00014   0.00014   2.09453
   A12        2.09439  -0.00003   0.00000  -0.00012  -0.00012   2.09427
   A13        2.09440  -0.00000   0.00000  -0.00002  -0.00002   2.09438
   A14        2.09439  -0.00003   0.00000  -0.00012  -0.00012   2.09427
   A15        2.09440   0.00003   0.00000   0.00014   0.00014   2.09453
   A16        2.09440   0.00001   0.00000   0.00003   0.00003   2.09443
   A17        2.09439  -0.00000   0.00000  -0.00002  -0.00002   2.09438
   A18        2.09440  -0.00000   0.00000  -0.00002  -0.00002   2.09438
    D1        0.00000   0.00000   0.00000  -0.00000   0.00000   0.00000
    D2        3.14159  -0.00000   0.00000  -0.00000   0.00000   3.14159
    D3        3.14159  -0.00000   0.00000  -0.00000   0.00000   3.14159
    D4        0.00000  -0.00000   0.00000  -0.00000   0.00000   0.00000
    D5        0.00000   0.00000   0.00000   0.00000   0.00000   0.00000
    D6        3.14159   0.00000   0.00000  -0.00000   0.00000   3.14159
    D7        3.14159   0.00000   0.00000   0.00000   0.00000   3.14159
    D8        0.00000  -0.00000   0.00000   0.00000   0.00000   0.00000
    D9        0.00000   0.00000   0.00000   0.00000   0.00000   0.00000
   D10        3.14159   0.00000   0.00000   0.00000   0.00000   3.14159
   D11        3.14159  -0.00000   0.00000  -0.00000   0.00000   3.14159
   D12        0.00000  -0.00000   0.00000   0.00000   0.00000   0.00000
   D13        0.00000  -0.00000   0.00000   0.00000   0.00000   0.00000
   D14        3.14159   0.00000   0.00000   0.00000   0.00000   3.14159
   D15        3.14159   0.00000   0.00000   0.00000   0.00000   3.14159
   D16        0.00000   0.00000   0.00000   0.00000   0.00000   0.00000
   D17        0.00000   0.00000   0.00000  -0.00000   0.00000   0.00000
   D18        3.14159  -0.00000   0.00000  -0.00000   0.00000   3.14159
   D19        3.14159  -0.00000   0.00000  -0.00000   0.00000   3.14159
   D20        0.00000  -0.00000   0.00000  -0.00000   0.00000   0.00000
   D21        0.00000  -0.00000   0.00000   0.00000   0.00000   0.00000
   D22        3.14159   0.00000   0.00000   0.00000   0.00000   3.14159
   D23        3.14159  -0.00000   0.00000  -0.00000   0.00000   3.14159
   D24        0.00000   0.00000   0.00000   0.00000   0.00000   0.00000
         Item               Value     Threshold  Converged?
 Maximum Force            0.015532     0.000450     NO 
 RMS     Force            0.005364     0.000300     NO 
 Maximum Displacement     0.032283     0.001800     NO 
 RMS     Displacement     0.011197     0.001200     NO 
 Predicted change in Energy=-2.081467D-03
 GradGradGradGradGradGradGradGradGradGradGradGradGradGradGradGradGradGrad

                          Input orientation:                          
 ---------------------------------------------------------------------
 Center     Atomic      Atomic             Coordinates (Angstroms)
 Number     Number       Type             X           Y           Z
 ---------------------------------------------------------------------
      1          6           0       -3.203451    0.196273    0.000000
      2          6           0       -2.011315    0.928923    0.000000
      3          6           0       -0.780781    0.262815    0.000000
      4          6           0       -0.742332   -1.135911    0.000000
      5          6           0       -1.934469   -1.868561    0.000000
      6          6           0       -3.165002   -1.202453    0.000000
      7         17           0       -4.625473   -2.100013    0.000000
      8         17           0       -4.710958    1.012512    0.000000
      9         17           0        0.765174   -1.952150    0.000000
     10         17           0       -1.887186   -3.582208    0.000000
     11         17           0       -2.058597    2.642570    0.000000
     12         17           0        0.679690    1.160375    0.000000
 ---------------------------------------------------------------------
                    Distance matrix (angstroms):
                    1          2          3          4          5
     1  C    0.000000
     2  C    1.399272   0.000000
     3  C    2.423584   1.399255   0.000000
     4  C    2.798539   2.423604   1.399254   0.000000
     5  C    2.423604   2.798539   2.423584   1.399273   0.000000
     6  C    1.399255   2.423584   2.798486   2.423584   1.399254
     7  Cl   2.700940   4.001034   4.512717   4.001034   2.700940
     8  Cl   1.714299   2.700936   4.001042   4.512838   4.001184
     9  Cl   4.512838   4.001184   2.701120   1.714299   2.700937
    10  Cl   4.001184   4.512838   4.001042   2.700937   1.714299
    11  Cl   2.700936   1.714299   2.701120   4.001184   4.512838
    12  Cl   4.001034   2.700940   1.714231   2.700940   4.001034
                    6          7          8          9         10
     6  C    0.000000
     7  Cl   1.714231   0.000000
     8  Cl   2.701120   3.113699   0.000000
     9  Cl   4.001042   5.392675   6.227138   0.000000
    10  Cl   2.701120   3.113698   5.393064   3.113215   0.000000
    11  Cl   4.001042   5.392675   3.113214   5.393064   6.227138
    12  Cl   4.512717   6.226948   5.392675   3.113698   5.392675
                   11         12
    11  Cl   0.000000
    12  Cl   3.113699   0.000000
 Stoichiometry    C6Cl6
 Framework group  CS[SG(C6Cl6)]
 Deg. of freedom    21
 Full point group                 CS      NOp   2
 Largest Abelian subgroup         CS      NOp   2
 Largest concise Abelian subgroup C1      NOp   1
                         Standard orientation:                         
 ---------------------------------------------------------------------
 Center     Atomic      Atomic             Coordinates (Angstroms)
 Number     Number       Type             X           Y           Z
 ---------------------------------------------------------------------
      1          6           0       -1.211802    0.699636    0.000000
      2          6           0       -1.211802   -0.699636    0.000000
      3          6           0        0.000000   -1.399243   -0.000000
      4          6           0        1.211802   -0.699636   -0.000000
      5          6           0        1.211802    0.699636   -0.000000
      6          6           0        0.000000    1.399243    0.000000
      7         17           0        0.000000    3.113474    0.000000
      8         17           0       -2.696532    1.556607    0.000000
      9         17           0        2.696532   -1.556607   -0.000000
     10         17           0        2.696532    1.556608   -0.000000
     11         17           0       -2.696532   -1.556607    0.000000
     12         17           0        0.000000   -3.113474   -0.000000
 ---------------------------------------------------------------------
 Rotational constants (GHZ):           0.4647749           0.4646906           0.2323664
 Standard basis: 6-311++G(d,p) (5D, 7F)
 There are   240 symmetry adapted cartesian basis functions of A'  symmetry.
 There are    84 symmetry adapted cartesian basis functions of A"  symmetry.
 There are   228 symmetry adapted basis functions of A'  symmetry.
 There are    84 symmetry adapted basis functions of A"  symmetry.
   312 basis functions,   534 primitive gaussians,   324 cartesian basis functions
    69 alpha electrons       69 beta electrons
       nuclear repulsion energy      1350.1824022907 Hartrees.
 NAtoms=   12 NActive=   12 NUniq=   12 SFac= 1.00D+00 NAtFMM=   60 NAOKFM=F Big=F
 Integral buffers will be    131072 words long.
 Raffenetti 2 integral format.
 Two-electron integral symmetry is turned on.
 One-electron integrals computed using PRISM.
 NBasis=   312 RedAO= T EigKep=  1.71D-06  NBF=   228    84
 NBsUse=   310 1.00D-06 EigRej=  2.31D-07 NBFU=   226    84
 Initial guess from the checkpoint file:  "frequency_chks/123456ClBz_Freq.chk"
 B after Tr=     0.000000   -0.000000    0.000000
         Rot=    1.000000    0.000000    0.000000   -0.000000 Ang=  -0.00 deg.
 Initial guess orbital symmetries:
       Occupied  (A') (A') (A') (A') (A') (A') (A') (A') (A') (A')
                 (A') (A') (A') (A') (A') (A') (A') (A') (A') (A')
                 (A') (A') (A') (A') (A") (A") (A") (A") (A") (A")
                 (A') (A') (A') (A') (A') (A') (A') (A') (A') (A')
                 (A') (A') (A') (A') (A') (A') (A') (A') (A') (A')
                 (A") (A') (A') (A') (A') (A") (A") (A") (A") (A')
                 (A') (A') (A") (A') (A') (A") (A') (A") (A")
       Virtual   (A") (A") (A') (A') (A') (A') (A') (A') (A") (A')
                 (A') (A') (A') (A") (A") (A') (A') (A') (A") (A")
                 (A') (A') (A") (A") (A') (A') (A') (A") (A") (A")
                 (A') (A') (A') (A') (A') (A') (A") (A") (A') (A')
                 (A') (A') (A') (A') (A') (A') (A') (A') (A') (A")
                 (A') (A') (A') (A') (A') (A') (A') (A') (A') (A')
                 (A') (A") (A') (A") (A") (A') (A') (A') (A') (A')
                 (A") (A") (A') (A') (A') (A") (A') (A') (A") (A')
                 (A") (A") (A") (A") (A') (A') (A') (A') (A') (A')
                 (A") (A") (A') (A') (A") (A") (A') (A') (A") (A")
                 (A") (A') (A') (A') (A') (A") (A') (A") (A") (A")
                 (A") (A') (A') (A') (A') (A') (A') (A') (A') (A')
                 (A") (A') (A') (A') (A') (A') (A') (A") (A') (A')
                 (A') (A') (A') (A") (A") (A") (A') (A') (A') (A')
                 (A') (A") (A") (A') (A') (A') (A') (A') (A') (A')
                 (A") (A") (A') (A') (A') (A') (A") (A") (A") (A')
                 (A') (A') (A') (A") (A") (A") (A") (A") (A") (A')
                 (A') (A") (A') (A') (A') (A') (A') (A') (A') (A')
                 (A') (A') (A') (A") (A') (A') (A') (A") (A") (A")
                 (A") (A') (A") (A') (A') (A') (A') (A') (A') (A')
                 (A') (A') (A') (A') (A') (A') (A') (A') (A') (A')
                 (A') (A') (A') (A') (A') (A') (A') (A") (A") (A")
                 (A") (A") (A") (A') (A') (A') (A') (A') (A') (A')
                 (A') (A') (A') (A') (A') (A') (A') (A') (A') (A')
                 (A')
 ExpMin= 4.38D-02 ExpMax= 1.06D+05 ExpMxC= 3.62D+03 IAcc=3 IRadAn=         5 AccDes= 0.00D+00
 Harris functional with IExCor= 1009 and IRadAn=       5 diagonalized for initial guess.
 HarFok:  IExCor= 1009 AccDes= 0.00D+00 IRadAn=         5 IDoV= 1 UseB2=F ITyADJ=14
 ICtDFT=  3500011 ScaDFX=  1.000000  1.000000  1.000000  1.000000
 FoFCou: FMM=F IPFlag=           0 FMFlag=      100000 FMFlg1=           0
         NFxFlg=           0 DoJE=T BraDBF=F KetDBF=T FulRan=T
         wScrn=  0.000000 ICntrl=       500 IOpCl=  0 I1Cent=   200000004 NGrid=           0
         NMat0=    1 NMatS0=      1 NMatT0=    0 NMatD0=    1 NMtDS0=    0 NMtDT0=    0
 Petite list used in FoFCou.
 Requested convergence on RMS density matrix=1.00D-08 within 128 cycles.
 Requested convergence on MAX density matrix=1.00D-06.
 Requested convergence on             energy=1.00D-06.
 No special actions if energy rises.
 SCF Done:  E(RM062X) =  -2989.77059058     A.U. after   11 cycles
            NFock= 11  Conv=0.17D-08     -V/T= 2.0022
 Calling FoFJK, ICntrl=      2127 FMM=F ISym2X=1 I1Cent= 0 IOpClX= 0 NMat=1 NMatS=1 NMatT=0.
 ***** Axes restored to original set *****
 -------------------------------------------------------------------
 Center     Atomic                   Forces (Hartrees/Bohr)
 Number     Number              X              Y              Z
 -------------------------------------------------------------------
      1        6           0.004225350   -0.002319932    0.000000000
      2        6           0.000161201   -0.004817655    0.000000000
      3        6          -0.004217269   -0.002591613   -0.000000000
      4        6          -0.004225637    0.002319617   -0.000000000
      5        6          -0.000160738    0.004817740   -0.000000000
      6        6           0.004217055    0.002591869   -0.000000000
      7       17          -0.002841174   -0.001746079    0.000000000
      8       17          -0.002825493    0.001526023   -0.000000000
      9       17           0.002825485   -0.001526075    0.000000000
     10       17           0.000085247   -0.003210132    0.000000000
     11       17          -0.000085195    0.003210132   -0.000000000
     12       17           0.002841168    0.001746107   -0.000000000
 -------------------------------------------------------------------
 Cartesian Forces:  Max     0.004817740 RMS     0.002388856

 GradGradGradGradGradGradGradGradGradGradGradGradGradGradGradGradGradGrad
 Berny optimization.
 Using GEDIIS/GDIIS optimizer.
 FormGI is forming the generalized inverse of G from B-inverse, IUseBI=4.
 Internal  Forces:  Max     0.003334835 RMS     0.001210038
 Search for a local minimum.
 Step number   2 out of a maximum of   64
 All quantities printed in internal units (Hartrees-Bohrs-Radians)
 Mixed Optimization -- RFO/linear search
 Update second derivatives using D2CorX and points    1    2
 DE= -2.48D-03 DEPred=-2.08D-03 R= 1.19D+00
 TightC=F SS=  1.41D+00  RLast= 1.05D-01 DXNew= 5.0454D-01 3.1377D-01
 Trust test= 1.19D+00 RLast= 1.05D-01 DXMaxT set to 3.14D-01
 ITU=  1  0
 Use linear search instead of GDIIS.
     Eigenvalues ---    0.02033   0.02033   0.02033   0.02033   0.02033
     Eigenvalues ---    0.02033   0.02033   0.02033   0.02033   0.25000
     Eigenvalues ---    0.25000   0.25000   0.25000   0.25000   0.25000
     Eigenvalues ---    0.25000   0.25000   0.25000   0.29376   0.36841
     Eigenvalues ---    0.36841   0.36841   0.36841   0.36845   0.41406
     Eigenvalues ---    0.41406   0.44460   0.44926   0.44926   0.44926
 RFO step:  Lambda=-1.08030358D-05 EMin= 2.03270789D-02
 Quartic linear search produced a step of  0.30096.
 Iteration  1 RMS(Cart)=  0.00291870 RMS(Int)=  0.00000003
 Iteration  2 RMS(Cart)=  0.00000007 RMS(Int)=  0.00000000
 ClnCor:  largest displacement from symmetrization is 1.20D-12 for atom     9.
 Variable       Old X    -DE/DX   Delta X   Delta X   Delta X     New X
                                 (Linear)    (Quad)   (Total)
    R1        2.64424  -0.00158  -0.00282  -0.00189  -0.00471   2.63953
    R2        2.64421  -0.00162  -0.00283  -0.00199  -0.00482   2.63938
    R3        3.23956   0.00321   0.01255  -0.00058   0.01197   3.25153
    R4        2.64421  -0.00162  -0.00283  -0.00199  -0.00482   2.63938
    R5        3.23956   0.00321   0.01255  -0.00058   0.01197   3.25153
    R6        2.64421  -0.00162  -0.00283  -0.00199  -0.00482   2.63938
    R7        3.23943   0.00333   0.01251  -0.00011   0.01240   3.25183
    R8        2.64424  -0.00158  -0.00282  -0.00189  -0.00471   2.63953
    R9        3.23956   0.00321   0.01255  -0.00058   0.01197   3.25153
   R10        2.64421  -0.00162  -0.00283  -0.00199  -0.00482   2.63938
   R11        3.23956   0.00321   0.01255  -0.00058   0.01197   3.25153
   R12        3.23943   0.00333   0.01251  -0.00011   0.01240   3.25183
    A1        2.09438   0.00000  -0.00001   0.00001   0.00001   2.09439
    A2        2.09427   0.00000  -0.00004   0.00006   0.00002   2.09430
    A3        2.09453  -0.00001   0.00004  -0.00007  -0.00003   2.09450
    A4        2.09438   0.00000  -0.00001   0.00001   0.00001   2.09439
    A5        2.09427   0.00000  -0.00004   0.00006   0.00002   2.09430
    A6        2.09453  -0.00001   0.00004  -0.00007  -0.00003   2.09450
    A7        2.09443  -0.00000   0.00001  -0.00003  -0.00002   2.09441
    A8        2.09438   0.00000  -0.00001   0.00001   0.00001   2.09439
    A9        2.09438   0.00000  -0.00001   0.00001   0.00001   2.09439
   A10        2.09438   0.00000  -0.00001   0.00001   0.00001   2.09439
   A11        2.09453  -0.00001   0.00004  -0.00007  -0.00003   2.09450
   A12        2.09427   0.00000  -0.00004   0.00006   0.00002   2.09430
   A13        2.09438   0.00000  -0.00001   0.00001   0.00001   2.09439
   A14        2.09427   0.00000  -0.00004   0.00006   0.00002   2.09430
   A15        2.09453  -0.00001   0.00004  -0.00007  -0.00003   2.09450
   A16        2.09443  -0.00000   0.00001  -0.00003  -0.00002   2.09441
   A17        2.09438   0.00000  -0.00001   0.00001   0.00001   2.09439
   A18        2.09438   0.00000  -0.00001   0.00001   0.00001   2.09439
    D1       -0.00000  -0.00000   0.00000   0.00000   0.00000   0.00000
    D2        3.14159  -0.00000   0.00000  -0.00000   0.00000   3.14159
    D3        3.14159   0.00000   0.00000   0.00000   0.00000   3.14159
    D4        0.00000   0.00000   0.00000   0.00000  -0.00000   0.00000
    D5       -0.00000  -0.00000   0.00000  -0.00000   0.00000   0.00000
    D6        3.14159  -0.00000   0.00000   0.00000   0.00000   3.14159
    D7        3.14159  -0.00000   0.00000  -0.00000   0.00000   3.14159
    D8        0.00000  -0.00000   0.00000  -0.00000   0.00000   0.00000
    D9        0.00000  -0.00000   0.00000  -0.00000  -0.00000   0.00000
   D10        3.14159  -0.00000   0.00000  -0.00000   0.00000   3.14159
   D11        3.14159   0.00000   0.00000   0.00000   0.00000   3.14159
   D12       -0.00000   0.00000   0.00000   0.00000   0.00000   0.00000
   D13       -0.00000   0.00000   0.00000   0.00000   0.00000   0.00000
   D14        3.14159  -0.00000   0.00000  -0.00000   0.00000   3.14159
   D15        3.14159   0.00000   0.00000   0.00000   0.00000   3.14159
   D16        0.00000   0.00000   0.00000  -0.00000  -0.00000   0.00000
   D17       -0.00000   0.00000   0.00000  -0.00000   0.00000   0.00000
   D18        3.14159   0.00000   0.00000  -0.00000   0.00000   3.14159
   D19        3.14159   0.00000   0.00000   0.00000   0.00000   3.14159
   D20        0.00000   0.00000   0.00000   0.00000   0.00000   0.00000
   D21        0.00000  -0.00000   0.00000   0.00000   0.00000   0.00000
   D22        3.14159  -0.00000   0.00000  -0.00000   0.00000   3.14159
   D23        3.14159  -0.00000   0.00000   0.00000   0.00000   3.14159
   D24       -0.00000  -0.00000   0.00000  -0.00000   0.00000   0.00000
         Item               Value     Threshold  Converged?
 Maximum Force            0.003335     0.000450     NO 
 RMS     Force            0.001210     0.000300     NO 
 Maximum Displacement     0.007163     0.001800     NO 
 RMS     Displacement     0.002919     0.001200     NO 
 Predicted change in Energy=-1.317662D-04
 GradGradGradGradGradGradGradGradGradGradGradGradGradGradGradGradGradGrad

                          Input orientation:                          
 ---------------------------------------------------------------------
 Center     Atomic      Atomic             Coordinates (Angstroms)
 Number     Number       Type             X           Y           Z
 ---------------------------------------------------------------------
      1          6           0       -3.201228    0.195036   -0.000000
      2          6           0       -2.011216    0.926381   -0.000000
      3          6           0       -0.782920    0.261500   -0.000000
      4          6           0       -0.744555   -1.134675    0.000000
      5          6           0       -1.934568   -1.866019    0.000000
      6          6           0       -3.162863   -1.201138    0.000000
      7         17           0       -4.628926   -2.102135    0.000000
      8         17           0       -4.714322    1.014259   -0.000000
      9         17           0        0.768538   -1.953898    0.000000
     10         17           0       -1.887146   -3.585999    0.000000
     11         17           0       -2.058636    2.646360   -0.000000
     12         17           0        0.683142    1.162497   -0.000000
 ---------------------------------------------------------------------
                    Distance matrix (angstroms):
                    1          2          3          4          5
     1  C    0.000000
     2  C    1.396780   0.000000
     3  C    2.419221   1.396702   0.000000
     4  C    2.793452   2.419169   1.396702   0.000000
     5  C    2.419169   2.793452   2.419221   1.396780   0.000000
     6  C    1.396702   2.419221   2.793464   2.419221   1.396702
     7  Cl   2.704684   4.003038   4.514258   4.003038   2.704684
     8  Cl   1.720633   2.704534   4.002820   4.514085   4.002878
     9  Cl   4.514085   4.002879   2.704628   1.720633   2.704534
    10  Cl   4.002879   4.514085   4.002819   2.704534   1.720633
    11  Cl   2.704534   1.720633   2.704628   4.002878   4.514085
    12  Cl   4.003038   2.704684   1.720795   2.704684   4.003038
                    6          7          8          9         10
     6  C    0.000000
     7  Cl   1.720795   0.000000
     8  Cl   2.704628   3.117563   0.000000
     9  Cl   4.002819   5.399499   6.234718   0.000000
    10  Cl   2.704628   3.117564   5.399564   3.117116   0.000000
    11  Cl   4.002820   5.399499   3.117118   5.399564   6.234718
    12  Cl   4.514258   6.235053   5.399499   3.117564   5.399499
                   11         12
    11  Cl   0.000000
    12  Cl   3.117563   0.000000
 Stoichiometry    C6Cl6
 Framework group  CS[SG(C6Cl6)]
 Deg. of freedom    21
 Full point group                 CS      NOp   2
 Largest Abelian subgroup         CS      NOp   2
 Largest concise Abelian subgroup C1      NOp   1
                         Standard orientation:                         
 ---------------------------------------------------------------------
 Center     Atomic      Atomic             Coordinates (Angstroms)
 Number     Number       Type             X           Y           Z
 ---------------------------------------------------------------------
      1          6           0       -1.209585    0.698390    0.000000
      2          6           0       -1.209585   -0.698390   -0.000000
      3          6           0        0.000000   -1.396732   -0.000000
      4          6           0        1.209585   -0.698390   -0.000000
      5          6           0        1.209585    0.698390    0.000000
      6          6           0        0.000000    1.396732    0.000000
      7         17           0       -0.000000    3.117526    0.000000
      8         17           0       -2.699782    1.558559    0.000000
      9         17           0        2.699782   -1.558558   -0.000000
     10         17           0        2.699782    1.558558    0.000000
     11         17           0       -2.699782   -1.558559   -0.000000
     12         17           0       -0.000000   -3.117526   -0.000000
 ---------------------------------------------------------------------
 Rotational constants (GHZ):           0.4637666           0.4637544           0.2318803
 Standard basis: 6-311++G(d,p) (5D, 7F)
 There are   240 symmetry adapted cartesian basis functions of A'  symmetry.
 There are    84 symmetry adapted cartesian basis functions of A"  symmetry.
 There are   228 symmetry adapted basis functions of A'  symmetry.
 There are    84 symmetry adapted basis functions of A"  symmetry.
   312 basis functions,   534 primitive gaussians,   324 cartesian basis functions
    69 alpha electrons       69 beta electrons
       nuclear repulsion energy      1348.6635399676 Hartrees.
 NAtoms=   12 NActive=   12 NUniq=   12 SFac= 1.00D+00 NAtFMM=   60 NAOKFM=F Big=F
 Integral buffers will be    131072 words long.
 Raffenetti 2 integral format.
 Two-electron integral symmetry is turned on.
 One-electron integrals computed using PRISM.
 NBasis=   312 RedAO= T EigKep=  1.69D-06  NBF=   228    84
 NBsUse=   310 1.00D-06 EigRej=  2.27D-07 NBFU=   226    84
 Initial guess from the checkpoint file:  "frequency_chks/123456ClBz_Freq.chk"
 B after Tr=     0.000000    0.000000    0.000000
         Rot=    1.000000   -0.000000    0.000000    0.000000 Ang=   0.00 deg.
 Initial guess orbital symmetries:
       Occupied  (A') (A') (A') (A') (A') (A') (A') (A') (A') (A')
                 (A') (A') (A') (A') (A') (A') (A') (A') (A') (A')
                 (A') (A') (A') (A') (A") (A") (A") (A") (A") (A")
                 (A') (A') (A') (A') (A') (A') (A') (A') (A') (A')
                 (A') (A') (A') (A') (A') (A') (A') (A') (A') (A')
                 (A") (A') (A') (A') (A') (A") (A") (A") (A") (A')
                 (A') (A') (A") (A') (A') (A") (A') (A") (A")
       Virtual   (A") (A") (A') (A') (A') (A') (A') (A') (A") (A')
                 (A') (A') (A') (A") (A") (A') (A') (A') (A") (A")
                 (A') (A') (A") (A") (A') (A') (A') (A") (A") (A")
                 (A') (A') (A') (A') (A') (A') (A") (A") (A') (A')
                 (A') (A') (A') (A') (A') (A') (A') (A') (A') (A")
                 (A') (A') (A') (A') (A') (A') (A') (A') (A') (A')
                 (A') (A") (A') (A") (A") (A') (A') (A') (A') (A')
                 (A') (A") (A") (A') (A') (A") (A') (A') (A") (A')
                 (A") (A") (A") (A") (A') (A') (A') (A') (A') (A')
                 (A") (A") (A') (A') (A") (A") (A') (A') (A") (A")
                 (A") (A') (A') (A') (A') (A') (A") (A") (A") (A")
                 (A") (A') (A') (A') (A') (A') (A') (A') (A') (A')
                 (A") (A') (A') (A') (A') (A') (A') (A") (A') (A')
                 (A') (A') (A') (A") (A") (A") (A') (A') (A') (A')
                 (A') (A") (A") (A') (A') (A') (A') (A') (A') (A')
                 (A") (A") (A') (A') (A') (A') (A") (A") (A") (A')
                 (A') (A') (A') (A") (A") (A") (A") (A") (A") (A')
                 (A') (A") (A') (A') (A') (A') (A') (A') (A') (A')
                 (A') (A') (A') (A") (A') (A') (A') (A") (A") (A")
                 (A") (A') (A") (A') (A') (A') (A') (A') (A') (A')
                 (A') (A') (A') (A') (A') (A') (A') (A') (A') (A')
                 (A') (A') (A') (A') (A') (A') (A') (A") (A") (A")
                 (A") (A") (A") (A') (A') (A') (A') (A') (A') (A')
                 (A') (A') (A') (A') (A') (A') (A') (A') (A') (A')
                 (A')
 Requested convergence on RMS density matrix=1.00D-08 within 128 cycles.
 Requested convergence on MAX density matrix=1.00D-06.
 Requested convergence on             energy=1.00D-06.
 No special actions if energy rises.
 SCF Done:  E(RM062X) =  -2989.77072957     A.U. after   10 cycles
            NFock= 10  Conv=0.63D-08     -V/T= 2.0022
 Calling FoFJK, ICntrl=      2127 FMM=F ISym2X=1 I1Cent= 0 IOpClX= 0 NMat=1 NMatS=1 NMatT=0.
 ***** Axes restored to original set *****
 -------------------------------------------------------------------
 Center     Atomic                   Forces (Hartrees/Bohr)
 Number     Number              X              Y              Z
 -------------------------------------------------------------------
      1        6          -0.000186685    0.000088363    0.000000000
      2        6           0.000005489    0.000206469    0.000000000
      3        6           0.000135548    0.000083379    0.000000000
      4        6           0.000186666   -0.000088445   -0.000000000
      5        6          -0.000005416   -0.000206485   -0.000000000
      6        6          -0.000135612   -0.000083274    0.000000000
      7       17          -0.000043873   -0.000027009   -0.000000000
      8       17          -0.000034406    0.000025692    0.000000000
      9       17           0.000034470   -0.000025620   -0.000000000
     10       17           0.000007283   -0.000042323   -0.000000000
     11       17          -0.000007382    0.000042303    0.000000000
     12       17           0.000043920    0.000026950   -0.000000000
 -------------------------------------------------------------------
 Cartesian Forces:  Max     0.000206485 RMS     0.000080621

 GradGradGradGradGradGradGradGradGradGradGradGradGradGradGradGradGradGrad
 Berny optimization.
 Using GEDIIS/GDIIS optimizer.
 FormGI is forming the generalized inverse of G from B-inverse, IUseBI=4.
 Internal  Forces:  Max     0.000237106 RMS     0.000080334
 Search for a local minimum.
 Step number   3 out of a maximum of   64
 All quantities printed in internal units (Hartrees-Bohrs-Radians)
 Mixed Optimization -- En-DIIS/RFO-DIIS
 Update second derivatives using D2CorX and points    1    2    3
 DE= -1.39D-04 DEPred=-1.32D-04 R= 1.05D+00
 TightC=F SS=  1.41D+00  RLast= 3.19D-02 DXNew= 5.2769D-01 9.5727D-02
 Trust test= 1.05D+00 RLast= 3.19D-02 DXMaxT set to 3.14D-01
 ITU=  1  1  0
 Use linear search instead of GDIIS.
     Eigenvalues ---    0.02033   0.02033   0.02033   0.02033   0.02033
     Eigenvalues ---    0.02033   0.02033   0.02033   0.02033   0.24995
     Eigenvalues ---    0.25000   0.25000   0.25000   0.25000   0.25000
     Eigenvalues ---    0.25000   0.25000   0.25000   0.27127   0.36841
     Eigenvalues ---    0.36841   0.36841   0.36841   0.36845   0.41395
     Eigenvalues ---    0.41395   0.44926   0.44926   0.44926   0.45467
 RFO step:  Lambda=-7.27886025D-07 EMin= 2.03270789D-02
 Quartic linear search produced a step of -0.01229.
 Iteration  1 RMS(Cart)=  0.00027456 RMS(Int)=  0.00000000
 Iteration  2 RMS(Cart)=  0.00000000 RMS(Int)=  0.00000000
 ClnCor:  largest displacement from symmetrization is 3.10D-13 for atom     8.
 Variable       Old X    -DE/DX   Delta X   Delta X   Delta X     New X
                                 (Linear)    (Quad)   (Total)
    R1        2.63953   0.00023   0.00006   0.00045   0.00051   2.64005
    R2        2.63938   0.00024   0.00006   0.00046   0.00052   2.63990
    R3        3.25153   0.00004  -0.00015   0.00025   0.00011   3.25163
    R4        2.63938   0.00024   0.00006   0.00046   0.00052   2.63990
    R5        3.25153   0.00004  -0.00015   0.00025   0.00011   3.25163
    R6        2.63938   0.00024   0.00006   0.00046   0.00052   2.63990
    R7        3.25183   0.00005  -0.00015   0.00028   0.00013   3.25196
    R8        2.63953   0.00023   0.00006   0.00046   0.00051   2.64005
    R9        3.25153   0.00004  -0.00015   0.00025   0.00011   3.25163
   R10        2.63938   0.00024   0.00006   0.00046   0.00052   2.63990
   R11        3.25153   0.00004  -0.00015   0.00025   0.00011   3.25163
   R12        3.25183   0.00005  -0.00015   0.00028   0.00013   3.25196
    A1        2.09439  -0.00001  -0.00000  -0.00003  -0.00003   2.09436
    A2        2.09430  -0.00001  -0.00000  -0.00003  -0.00003   2.09427
    A3        2.09450   0.00001   0.00000   0.00005   0.00005   2.09456
    A4        2.09439  -0.00001  -0.00000  -0.00003  -0.00003   2.09436
    A5        2.09430  -0.00001  -0.00000  -0.00003  -0.00003   2.09427
    A6        2.09450   0.00001   0.00000   0.00005   0.00005   2.09456
    A7        2.09441   0.00001   0.00000   0.00005   0.00005   2.09446
    A8        2.09439  -0.00001  -0.00000  -0.00003  -0.00003   2.09436
    A9        2.09439  -0.00001  -0.00000  -0.00003  -0.00003   2.09436
   A10        2.09439  -0.00001  -0.00000  -0.00003  -0.00003   2.09436
   A11        2.09450   0.00001   0.00000   0.00005   0.00005   2.09455
   A12        2.09430  -0.00001  -0.00000  -0.00003  -0.00003   2.09427
   A13        2.09439  -0.00001  -0.00000  -0.00003  -0.00003   2.09436
   A14        2.09430  -0.00001  -0.00000  -0.00003  -0.00003   2.09427
   A15        2.09450   0.00001   0.00000   0.00005   0.00005   2.09455
   A16        2.09441   0.00001   0.00000   0.00005   0.00005   2.09446
   A17        2.09439  -0.00001  -0.00000  -0.00003  -0.00003   2.09436
   A18        2.09439  -0.00001  -0.00000  -0.00003  -0.00003   2.09436
    D1       -0.00000   0.00000   0.00000   0.00000   0.00000   0.00000
    D2        3.14159  -0.00000   0.00000  -0.00000   0.00000   3.14159
    D3        3.14159  -0.00000   0.00000  -0.00000   0.00000   3.14159
    D4        0.00000  -0.00000   0.00000  -0.00000   0.00000   0.00000
    D5        0.00000  -0.00000   0.00000  -0.00000   0.00000   0.00000
    D6        3.14159   0.00000   0.00000   0.00000   0.00000   3.14159
    D7        3.14159   0.00000   0.00000   0.00000   0.00000   3.14159
    D8       -0.00000   0.00000   0.00000   0.00000   0.00000   0.00000
    D9        0.00000  -0.00000   0.00000  -0.00000   0.00000   0.00000
   D10        3.14159  -0.00000   0.00000  -0.00000   0.00000   3.14159
   D11        3.14159  -0.00000   0.00000  -0.00000   0.00000   3.14159
   D12        0.00000   0.00000   0.00000   0.00000  -0.00000   0.00000
   D13       -0.00000   0.00000   0.00000   0.00000   0.00000   0.00000
   D14        3.14159   0.00000   0.00000   0.00000   0.00000   3.14159
   D15        3.14159   0.00000   0.00000   0.00000   0.00000   3.14159
   D16        0.00000   0.00000   0.00000   0.00000   0.00000   0.00000
   D17        0.00000  -0.00000   0.00000  -0.00000  -0.00000   0.00000
   D18        3.14159   0.00000   0.00000  -0.00000   0.00000   3.14159
   D19        3.14159  -0.00000   0.00000  -0.00000   0.00000   3.14159
   D20       -0.00000   0.00000   0.00000   0.00000   0.00000   0.00000
   D21       -0.00000  -0.00000   0.00000   0.00000   0.00000   0.00000
   D22        3.14159  -0.00000   0.00000  -0.00000   0.00000   3.14159
   D23        3.14159  -0.00000   0.00000  -0.00000   0.00000   3.14159
   D24        0.00000  -0.00000   0.00000  -0.00000  -0.00000   0.00000
         Item               Value     Threshold  Converged?
 Maximum Force            0.000237     0.000450     YES
 RMS     Force            0.000080     0.000300     YES
 Maximum Displacement     0.000652     0.001800     YES
 RMS     Displacement     0.000275     0.001200     YES
 Predicted change in Energy=-3.852475D-07
 Optimization completed.
    -- Stationary point found.
                           ----------------------------
                           !   Optimized Parameters   !
                           ! (Angstroms and Degrees)  !
 --------------------------                            --------------------------
 ! Name  Definition              Value          Derivative Info.                !
 --------------------------------------------------------------------------------
 ! R1    R(1,2)                  1.3968         -DE/DX =    0.0002              !
 ! R2    R(1,6)                  1.3967         -DE/DX =    0.0002              !
 ! R3    R(1,8)                  1.7206         -DE/DX =    0.0                 !
 ! R4    R(2,3)                  1.3967         -DE/DX =    0.0002              !
 ! R5    R(2,11)                 1.7206         -DE/DX =    0.0                 !
 ! R6    R(3,4)                  1.3967         -DE/DX =    0.0002              !
 ! R7    R(3,12)                 1.7208         -DE/DX =    0.0001              !
 ! R8    R(4,5)                  1.3968         -DE/DX =    0.0002              !
 ! R9    R(4,9)                  1.7206         -DE/DX =    0.0                 !
 ! R10   R(5,6)                  1.3967         -DE/DX =    0.0002              !
 ! R11   R(5,10)                 1.7206         -DE/DX =    0.0                 !
 ! R12   R(6,7)                  1.7208         -DE/DX =    0.0001              !
 ! A1    A(2,1,6)              119.9996         -DE/DX =    0.0                 !
 ! A2    A(2,1,8)              119.9943         -DE/DX =    0.0                 !
 ! A3    A(6,1,8)              120.0061         -DE/DX =    0.0                 !
 ! A4    A(1,2,3)              119.9996         -DE/DX =    0.0                 !
 ! A5    A(1,2,11)             119.9943         -DE/DX =    0.0                 !
 ! A6    A(3,2,11)             120.0061         -DE/DX =    0.0                 !
 ! A7    A(2,3,4)              120.0009         -DE/DX =    0.0                 !
 ! A8    A(2,3,12)             119.9996         -DE/DX =    0.0                 !
 ! A9    A(4,3,12)             119.9996         -DE/DX =    0.0                 !
 ! A10   A(3,4,5)              119.9996         -DE/DX =    0.0                 !
 ! A11   A(3,4,9)              120.0061         -DE/DX =    0.0                 !
 ! A12   A(5,4,9)              119.9943         -DE/DX =    0.0                 !
 ! A13   A(4,5,6)              119.9996         -DE/DX =    0.0                 !
 ! A14   A(4,5,10)             119.9943         -DE/DX =    0.0                 !
 ! A15   A(6,5,10)             120.0062         -DE/DX =    0.0                 !
 ! A16   A(1,6,5)              120.0009         -DE/DX =    0.0                 !
 ! A17   A(1,6,7)              119.9996         -DE/DX =    0.0                 !
 ! A18   A(5,6,7)              119.9996         -DE/DX =    0.0                 !
 ! D1    D(6,1,2,3)              0.0            -DE/DX =    0.0                 !
 ! D2    D(6,1,2,11)           180.0            -DE/DX =    0.0                 !
 ! D3    D(8,1,2,3)            180.0            -DE/DX =    0.0                 !
 ! D4    D(8,1,2,11)             0.0            -DE/DX =    0.0                 !
 ! D5    D(2,1,6,5)              0.0            -DE/DX =    0.0                 !
 ! D6    D(2,1,6,7)            180.0            -DE/DX =    0.0                 !
 ! D7    D(8,1,6,5)            180.0            -DE/DX =    0.0                 !
 ! D8    D(8,1,6,7)              0.0            -DE/DX =    0.0                 !
 ! D9    D(1,2,3,4)              0.0            -DE/DX =    0.0                 !
 ! D10   D(1,2,3,12)           180.0            -DE/DX =    0.0                 !
 ! D11   D(11,2,3,4)           180.0            -DE/DX =    0.0                 !
 ! D12   D(11,2,3,12)            0.0            -DE/DX =    0.0                 !
 ! D13   D(2,3,4,5)              0.0            -DE/DX =    0.0                 !
 ! D14   D(2,3,4,9)            180.0            -DE/DX =    0.0                 !
 ! D15   D(12,3,4,5)           180.0            -DE/DX =    0.0                 !
 ! D16   D(12,3,4,9)             0.0            -DE/DX =    0.0                 !
 ! D17   D(3,4,5,6)              0.0            -DE/DX =    0.0                 !
 ! D18   D(3,4,5,10)           180.0            -DE/DX =    0.0                 !
 ! D19   D(9,4,5,6)            180.0            -DE/DX =    0.0                 !
 ! D20   D(9,4,5,10)             0.0            -DE/DX =    0.0                 !
 ! D21   D(4,5,6,1)              0.0            -DE/DX =    0.0                 !
 ! D22   D(4,5,6,7)            180.0            -DE/DX =    0.0                 !
 ! D23   D(10,5,6,1)           180.0            -DE/DX =    0.0                 !
 ! D24   D(10,5,6,7)             0.0            -DE/DX =    0.0                 !
 --------------------------------------------------------------------------------
 GradGradGradGradGradGradGradGradGradGradGradGradGradGradGradGradGradGrad

                          Input orientation:                          
 ---------------------------------------------------------------------
 Center     Atomic      Atomic             Coordinates (Angstroms)
 Number     Number       Type             X           Y           Z
 ---------------------------------------------------------------------
      1          6           0       -3.201228    0.195036    0.000000
      2          6           0       -2.011216    0.926381    0.000000
      3          6           0       -0.782920    0.261500   -0.000000
      4          6           0       -0.744555   -1.134675   -0.000000
      5          6           0       -1.934568   -1.866019   -0.000000
      6          6           0       -3.162863   -1.201138    0.000000
      7         17           0       -4.628926   -2.102135    0.000000
      8         17           0       -4.714322    1.014259    0.000000
      9         17           0        0.768538   -1.953898   -0.000000
     10         17           0       -1.887146   -3.585999   -0.000000
     11         17           0       -2.058636    2.646360    0.000000
     12         17           0        0.683142    1.162497   -0.000000
 ---------------------------------------------------------------------
                    Distance matrix (angstroms):
                    1          2          3          4          5
     1  C    0.000000
     2  C    1.396780   0.000000
     3  C    2.419221   1.396702   0.000000
     4  C    2.793452   2.419169   1.396702   0.000000
     5  C    2.419169   2.793452   2.419221   1.396780   0.000000
     6  C    1.396702   2.419221   2.793464   2.419221   1.396702
     7  Cl   2.704684   4.003038   4.514258   4.003038   2.704684
     8  Cl   1.720633   2.704534   4.002820   4.514085   4.002878
     9  Cl   4.514085   4.002879   2.704628   1.720633   2.704534
    10  Cl   4.002879   4.514085   4.002819   2.704534   1.720633
    11  Cl   2.704534   1.720633   2.704628   4.002878   4.514085
    12  Cl   4.003038   2.704684   1.720795   2.704684   4.003038
                    6          7          8          9         10
     6  C    0.000000
     7  Cl   1.720795   0.000000
     8  Cl   2.704628   3.117563   0.000000
     9  Cl   4.002819   5.399499   6.234718   0.000000
    10  Cl   2.704628   3.117564   5.399564   3.117116   0.000000
    11  Cl   4.002820   5.399499   3.117118   5.399564   6.234718
    12  Cl   4.514258   6.235053   5.399499   3.117564   5.399499
                   11         12
    11  Cl   0.000000
    12  Cl   3.117563   0.000000
 Stoichiometry    C6Cl6
 Framework group  CS[SG(C6Cl6)]
 Deg. of freedom    21
 Full point group                 CS      NOp   2
 Largest Abelian subgroup         CS      NOp   2
 Largest concise Abelian subgroup C1      NOp   1
                         Standard orientation:                         
 ---------------------------------------------------------------------
 Center     Atomic      Atomic             Coordinates (Angstroms)
 Number     Number       Type             X           Y           Z
 ---------------------------------------------------------------------
      1          6           0       -1.209585    0.698390    0.000000
      2          6           0       -1.209585   -0.698390    0.000000
      3          6           0        0.000000   -1.396732    0.000000
      4          6           0        1.209585   -0.698390    0.000000
      5          6           0        1.209585    0.698390    0.000000
      6          6           0        0.000000    1.396732    0.000000
      7         17           0       -0.000000    3.117526    0.000000
      8         17           0       -2.699782    1.558559    0.000000
      9         17           0        2.699782   -1.558558    0.000000
     10         17           0        2.699782    1.558558    0.000000
     11         17           0       -2.699782   -1.558559    0.000000
     12         17           0       -0.000000   -3.117526    0.000000
 ---------------------------------------------------------------------
 Rotational constants (GHZ):           0.4637666           0.4637544           0.2318803

 **********************************************************************

            Population analysis using the SCF Density.

 **********************************************************************

 Orbital symmetries:
       Occupied  (A') (A') (A') (A') (A') (A') (A') (A') (A') (A')
                 (A') (A') (A') (A') (A') (A') (A') (A') (A') (A')
                 (A') (A') (A') (A') (A") (A") (A") (A") (A") (A")
                 (A') (A') (A') (A') (A') (A') (A') (A') (A') (A')
                 (A') (A') (A') (A') (A') (A') (A') (A') (A') (A')
                 (A") (A') (A') (A') (A') (A") (A") (A") (A") (A')
                 (A') (A') (A") (A') (A') (A") (A') (A") (A")
       Virtual   (A") (A") (A') (A') (A') (A') (A') (A') (A") (A')
                 (A') (A') (A') (A") (A") (A') (A') (A') (A") (A")
                 (A') (A') (A") (A") (A') (A') (A') (A") (A") (A")
                 (A') (A') (A') (A') (A') (A') (A") (A") (A') (A')
                 (A') (A') (A') (A') (A') (A') (A') (A') (A') (A")
                 (A') (A') (A') (A') (A') (A') (A') (A') (A') (A')
                 (A') (A") (A') (A") (A") (A') (A') (A') (A') (A')
                 (A') (A") (A") (A') (A') (A") (A') (A') (A") (A')
                 (A") (A") (A") (A") (A') (A') (A') (A') (A') (A')
                 (A") (A") (A') (A') (A") (A") (A') (A') (A") (A")
                 (A") (A') (A') (A') (A') (A') (A") (A") (A") (A')
                 (A") (A") (A') (A') (A') (A') (A') (A') (A') (A')
                 (A") (A') (A') (A') (A') (A') (A') (A") (A') (A')
                 (A') (A') (A') (A") (A') (A") (A") (A') (A') (A")
                 (A") (A') (A') (A') (A') (A') (A') (A') (A') (A')
                 (A") (A") (A') (A') (A') (A') (A") (A") (A") (A')
                 (A') (A') (A') (A") (A") (A") (A") (A") (A") (A')
                 (A') (A") (A') (A') (A') (A') (A') (A') (A') (A')
                 (A') (A') (A') (A") (A') (A') (A') (A") (A") (A")
                 (A") (A') (A") (A') (A') (A') (A') (A') (A') (A')
                 (A') (A') (A') (A') (A') (A') (A') (A') (A') (A')
                 (A') (A') (A') (A') (A') (A') (A') (A") (A") (A")
                 (A") (A") (A") (A') (A') (A') (A') (A') (A') (A')
                 (A') (A') (A') (A') (A') (A') (A') (A') (A') (A')
                 (A')
 The electronic state is 1-A'.
 Alpha  occ. eigenvalues -- -102.70956-102.70956-102.70956-102.70956-102.70953
 Alpha  occ. eigenvalues -- -102.70953 -10.66138 -10.66105 -10.66105 -10.66028
 Alpha  occ. eigenvalues --  -10.66028 -10.65991  -9.85230  -9.85230  -9.85229
 Alpha  occ. eigenvalues --   -9.85229  -9.85226  -9.85225  -7.57768  -7.57768
 Alpha  occ. eigenvalues --   -7.57768  -7.57768  -7.57764  -7.57764  -7.57053
 Alpha  occ. eigenvalues --   -7.57053  -7.57053  -7.57053  -7.57050  -7.57050
 Alpha  occ. eigenvalues --   -7.57013  -7.57013  -7.57013  -7.57013  -7.57010
 Alpha  occ. eigenvalues --   -7.57010  -1.09192  -1.03831  -1.03828  -0.98680
 Alpha  occ. eigenvalues --   -0.98678  -0.96420  -0.93825  -0.84276  -0.84273
[...]
    R7        3.25183   0.00005   0.00000   0.00013   0.00013   3.25196
    R8        2.63953   0.00023   0.00000   0.00047   0.00047   2.64000
    R9        3.25153   0.00004   0.00000   0.00006   0.00006   3.25159
   R10        2.63938   0.00024   0.00000   0.00045   0.00045   2.63983
   R11        3.25153   0.00004   0.00000   0.00006   0.00006   3.25159
   R12        3.25183   0.00005   0.00000   0.00013   0.00013   3.25196
    A1        2.09439  -0.00001   0.00000  -0.00004  -0.00004   2.09435
    A2        2.09430  -0.00001   0.00000  -0.00002  -0.00002   2.09428
    A3        2.09450   0.00001   0.00000   0.00006   0.00006   2.09456
    A4        2.09439  -0.00001   0.00000  -0.00004  -0.00004   2.09435
    A5        2.09430  -0.00001   0.00000  -0.00002  -0.00002   2.09428
    A6        2.09450   0.00001   0.00000   0.00006   0.00006   2.09456
    A7        2.09441   0.00001   0.00000   0.00008   0.00008   2.09449
    A8        2.09439  -0.00001   0.00000  -0.00004  -0.00004   2.09435
    A9        2.09439  -0.00001   0.00000  -0.00004  -0.00004   2.09435
   A10        2.09439  -0.00001   0.00000  -0.00004  -0.00004   2.09435
   A11        2.09450   0.00001   0.00000   0.00006   0.00006   2.09456
   A12        2.09430  -0.00001   0.00000  -0.00001  -0.00001   2.09428
   A13        2.09439  -0.00001   0.00000  -0.00004  -0.00004   2.09435
   A14        2.09430  -0.00001   0.00000  -0.00001  -0.00001   2.09428
   A15        2.09450   0.00001   0.00000   0.00006   0.00006   2.09456
   A16        2.09441   0.00001   0.00000   0.00008   0.00008   2.09449
   A17        2.09439  -0.00001   0.00000  -0.00004  -0.00004   2.09435
   A18        2.09439  -0.00001   0.00000  -0.00004  -0.00004   2.09435
    D1        0.00000  -0.00000   0.00000  -0.00000  -0.00000   0.00000
    D2        3.14159  -0.00000   0.00000  -0.00000   0.00000   3.14159
    D3        3.14159   0.00000   0.00000  -0.00000   0.00000   3.14159
    D4       -0.00000  -0.00000   0.00000  -0.00000   0.00000   0.00000
    D5        0.00000   0.00000   0.00000   0.00000   0.00000   0.00000
    D6        3.14159   0.00000   0.00000   0.00000   0.00000   3.14159
    D7        3.14159  -0.00000   0.00000   0.00000   0.00000   3.14159
    D8        0.00000  -0.00000   0.00000   0.00000   0.00000   0.00000
    D9        0.00000  -0.00000   0.00000  -0.00000   0.00000   0.00000
   D10        3.14159   0.00000   0.00000  -0.00000   0.00000   3.14159
   D11        3.14159   0.00000   0.00000  -0.00000   0.00000   3.14159
   D12       -0.00000  -0.00000   0.00000  -0.00000   0.00000   0.00000
   D13       -0.00000  -0.00000   0.00000   0.00000   0.00000   0.00000
   D14        3.14159   0.00000   0.00000   0.00000   0.00000   3.14159
   D15        3.14159   0.00000   0.00000   0.00000   0.00000   3.14159
   D16        0.00000   0.00000   0.00000   0.00000   0.00000   0.00000
   D17        0.00000  -0.00000   0.00000  -0.00000  -0.00000   0.00000
   D18        3.14159   0.00000   0.00000  -0.00000   0.00000   3.14159
   D19        3.14159  -0.00000   0.00000  -0.00000   0.00000   3.14159
   D20        0.00000  -0.00000   0.00000  -0.00000   0.00000   0.00000
   D21       -0.00000  -0.00000   0.00000  -0.00000   0.00000   0.00000
   D22        3.14159  -0.00000   0.00000  -0.00000   0.00000   3.14159
   D23        3.14159   0.00000   0.00000  -0.00000   0.00000   3.14159
   D24        0.00000  -0.00000   0.00000  -0.00000   0.00000   0.00000
         Item               Value     Threshold  Converged?
 Maximum Force            0.000237     0.000450     YES
 RMS     Force            0.000080     0.000300     YES
 Maximum Displacement     0.000560     0.001800     YES
 RMS     Displacement     0.000237     0.001200     YES
 Predicted change in Energy=-3.380361D-07
 Optimization completed.
    -- Stationary point found.
                           ----------------------------
                           !   Optimized Parameters   !
                           ! (Angstroms and Degrees)  !
 --------------------------                            --------------------------
 ! Name  Definition              Value          Derivative Info.                !
 --------------------------------------------------------------------------------
 ! R1    R(1,2)                  1.3968         -DE/DX =    0.0002              !
 ! R2    R(1,6)                  1.3967         -DE/DX =    0.0002              !
 ! R3    R(1,8)                  1.7206         -DE/DX =    0.0                 !
 ! R4    R(2,3)                  1.3967         -DE/DX =    0.0002              !
 ! R5    R(2,11)                 1.7206         -DE/DX =    0.0                 !
 ! R6    R(3,4)                  1.3967         -DE/DX =    0.0002              !
 ! R7    R(3,12)                 1.7208         -DE/DX =    0.0001              !
 ! R8    R(4,5)                  1.3968         -DE/DX =    0.0002              !
 ! R9    R(4,9)                  1.7206         -DE/DX =    0.0                 !
 ! R10   R(5,6)                  1.3967         -DE/DX =    0.0002              !
 ! R11   R(5,10)                 1.7206         -DE/DX =    0.0                 !
 ! R12   R(6,7)                  1.7208         -DE/DX =    0.0001              !
 ! A1    A(2,1,6)              119.9996         -DE/DX =    0.0                 !
 ! A2    A(2,1,8)              119.9943         -DE/DX =    0.0                 !
 ! A3    A(6,1,8)              120.0061         -DE/DX =    0.0                 !
 ! A4    A(1,2,3)              119.9996         -DE/DX =    0.0                 !
 ! A5    A(1,2,11)             119.9943         -DE/DX =    0.0                 !
 ! A6    A(3,2,11)             120.0061         -DE/DX =    0.0                 !
 ! A7    A(2,3,4)              120.0009         -DE/DX =    0.0                 !
 ! A8    A(2,3,12)             119.9996         -DE/DX =    0.0                 !
 ! A9    A(4,3,12)             119.9996         -DE/DX =    0.0                 !
 ! A10   A(3,4,5)              119.9996         -DE/DX =    0.0                 !
 ! A11   A(3,4,9)              120.0061         -DE/DX =    0.0                 !
 ! A12   A(5,4,9)              119.9943         -DE/DX =    0.0                 !
 ! A13   A(4,5,6)              119.9996         -DE/DX =    0.0                 !
 ! A14   A(4,5,10)             119.9943         -DE/DX =    0.0                 !
 ! A15   A(6,5,10)             120.0062         -DE/DX =    0.0                 !
 ! A16   A(1,6,5)              120.0009         -DE/DX =    0.0                 !
 ! A17   A(1,6,7)              119.9996         -DE/DX =    0.0                 !
 ! A18   A(5,6,7)              119.9996         -DE/DX =    0.0                 !
 ! D1    D(6,1,2,3)              0.0            -DE/DX =    0.0                 !
 ! D2    D(6,1,2,11)           180.0            -DE/DX =    0.0                 !
 ! D3    D(8,1,2,3)            180.0            -DE/DX =    0.0                 !
 ! D4    D(8,1,2,11)             0.0            -DE/DX =    0.0                 !
 ! D5    D(2,1,6,5)              0.0            -DE/DX =    0.0                 !
 ! D6    D(2,1,6,7)            180.0            -DE/DX =    0.0                 !
 ! D7    D(8,1,6,5)            180.0            -DE/DX =    0.0                 !
 ! D8    D(8,1,6,7)              0.0            -DE/DX =    0.0                 !
 ! D9    D(1,2,3,4)              0.0            -DE/DX =    0.0                 !
 ! D10   D(1,2,3,12)           180.0            -DE/DX =    0.0                 !
 ! D11   D(11,2,3,4)           180.0            -DE/DX =    0.0                 !
 ! D12   D(11,2,3,12)            0.0            -DE/DX =    0.0                 !
 ! D13   D(2,3,4,5)              0.0            -DE/DX =    0.0                 !
 ! D14   D(2,3,4,9)            180.0            -DE/DX =    0.0                 !
 ! D15   D(12,3,4,5)           180.0            -DE/DX =    0.0                 !
 ! D16   D(12,3,4,9)             0.0            -DE/DX =    0.0                 !
 ! D17   D(3,4,5,6)              0.0            -DE/DX =    0.0                 !
 ! D18   D(3,4,5,10)           180.0            -DE/DX =    0.0                 !
 ! D19   D(9,4,5,6)            180.0            -DE/DX =    0.0                 !
 ! D20   D(9,4,5,10)             0.0            -DE/DX =    0.0                 !
 ! D21   D(4,5,6,1)              0.0            -DE/DX =    0.0                 !
 ! D22   D(4,5,6,7)            180.0            -DE/DX =    0.0                 !
 ! D23   D(10,5,6,1)           180.0            -DE/DX =    0.0                 !
 ! D24   D(10,5,6,7)             0.0            -DE/DX =    0.0                 !
 --------------------------------------------------------------------------------
 GradGradGradGradGradGradGradGradGradGradGradGradGradGradGradGradGradGrad


 ----------------------------------------------------------------------

 Electric dipole moment (input orientation):
 (Debye = 10**-18 statcoulomb cm , SI units = C m)
                  (au)            (Debye)         (10**-30 SI)
   Tot        0.000000D+00      0.000000D+00      0.000000D+00
   x          0.000000D+00      0.000000D+00      0.000000D+00
   y          0.000000D+00      0.000000D+00      0.000000D+00
   z          0.000000D+00      0.000000D+00      0.000000D+00

 Dipole polarizability, Alpha (input orientation).
 (esu units = cm**3 , SI units = C**2 m**2 J**-1)
 Alpha(0;0):
               (au)            (10**-24 esu)      (10**-40 SI)
   iso        0.140908D+03      0.208804D+02      0.232326D+02
   aniso      0.101539D+03      0.150466D+02      0.167415D+02
   xx         0.174770D+03      0.258982D+02      0.288157D+02
   yx         0.307865D-01      0.456208D-02      0.507600D-02
   yy         0.174739D+03      0.258936D+02      0.288105D+02
   zx         0.000000D+00      0.000000D+00      0.000000D+00
   zy         0.000000D+00      0.000000D+00      0.000000D+00
   zz         0.732151D+02      0.108494D+02      0.120715D+02

 ----------------------------------------------------------------------

 Dipole orientation:
     6         -4.38430230         -2.52393599          3.33755350
     6         -2.09768664         -1.20758708          3.41335347
     6         -0.89757010         -0.51670923          1.16640980
     6         -1.98391009         -1.14208869         -1.15632824
     6         -4.27052586         -2.45843766         -1.23212825
     6         -5.47064236         -3.14931549          1.01481511
    17         -8.28768933         -4.77102078          0.92143212
    17         -5.86253711         -3.37491974          6.10577745
    17         -0.50567630         -0.29110552         -3.92455286
    17         -5.60858795         -3.22872740         -4.09371148
    17         -0.75962342         -0.43729669          6.27493605
    17          1.91947683          1.10499603          1.25979372

 Electric dipole moment (dipole orientation):
 (Debye = 10**-18 statcoulomb cm , SI units = C m)
                  (au)            (Debye)         (10**-30 SI)
   Tot        0.000000D+00      0.000000D+00      0.000000D+00
   x          0.000000D+00      0.000000D+00      0.000000D+00
   y          0.000000D+00      0.000000D+00      0.000000D+00
   z          0.000000D+00      0.000000D+00      0.000000D+00

 Dipole polarizability, Alpha (dipole orientation).
 (esu units = cm**3 , SI units = C**2 m**2 J**-1)
 Alpha(0;0):
               (au)            (10**-24 esu)      (10**-40 SI)
   iso        0.140908D+03      0.208804D+02      0.232326D+02
   aniso      0.101539D+03      0.150466D+02      0.167415D+02
   xx         0.149506D+03      0.221545D+02      0.246502D+02
   yx         0.439187D+02      0.650808D+01      0.724121D+01
   yy         0.984980D+02      0.145959D+02      0.162401D+02
   zx         0.171673D-02      0.254392D-03      0.283050D-03
   zy         0.988277D-03      0.146448D-03      0.162945D-03
   zz         0.174720D+03      0.258908D+02      0.288074D+02

 ----------------------------------------------------------------------
 1\1\GINC-SH02-01N33\Freq\RM062X\6-311++G(d,p)\C6Cl6\JLAPIER\09-Dec-202
 5\0\\#N Geom=AllCheck Guess=TCheck SCRF=Check GenChk RM062X/6-311++G(d
 ,p) Freq\\6-Chloro-Benzene (123456)\\0,1\C,-3.2012283324,0.1950363621,
 0.\C,-2.011215568,0.9263810695,0.\C,-0.782920278,0.261500071,0.\C,-0.7
 445550283,-1.1346745951,0.\C,-1.9345678404,-1.8660193468,0.\C,-3.16286
 30259,-1.2011384779,0.\Cl,-4.6289258201,-2.1021346256,0.\Cl,-4.7143219
 192,1.0142589335,0.\Cl,0.7685381984,-1.9538977778,0.\Cl,-1.8871463822,
 -3.5859986924,0.\Cl,-2.0586362562,2.6463604581,0.\Cl,0.6831422476,1.16
 24966291,0.\\Version=ES64L-G16RevB.01\State=1-A'\HF=-2989.7707296\RMSD
 =3.061e-09\RMSF=8.062e-05\ZeroPoint=0.0432664\Thermal=0.0547991\Dipole
 =0.,0.,0.\DipoleDeriv=0.6683915,-0.4960519,0.,-0.4935344,0.0199879,0.,
 0.,0.,0.0040025,-0.2465129,-0.0303236,0.,-0.0328411,0.9348923,0.,0.,0.
 ,0.0040025,0.6126269,0.5276518,0.,0.5276517,0.0783331,0.,0.,0.,0.00154
 06,0.6683911,-0.4960521,0.,-0.4935344,0.019988,0.,0.,0.,0.0040025,-0.2
 46513,-0.0303238,0.,-0.0328415,0.9348921,0.,0.,0.,0.0040025,0.612627,0
 .5276516,0.,0.5276517,0.0783329,0.,0.,0.,0.0015406,-0.5068843,-0.32283
 43,0.,-0.3228344,-0.1799858,0.,0.,0.,-0.0023547,-0.5436976,0.3021942,0
 .,0.3027742,-0.1467266,0.,0.,0.,-0.0035955,-0.5436972,0.3021944,0.,0.3
 027743,-0.1467268,0.,0.,0.,-0.0035955,0.0160764,0.0193642,0.,0.0187843
 ,-0.7065005,0.,0.,0.,-0.0035955,0.0160764,0.0193639,0.,0.0187839,-0.70
 65006,0.,0.,0.,-0.0035955,-0.5068841,-0.3228344,0.,-0.3228343,-0.17998
 6,0.,0.,0.,-0.0023547\Polar=174.769873,0.0307865,174.7386985,0.,0.,73.
 2151194\Quadrupole=0.4586753,0.4607755,-0.9194509,-0.0020742,0.,0.\PG=
 CS [SG(C6Cl6)]\NImag=0\\0.57434396,0.03152862,0.61476410,0.,0.,0.10481
 325,-0.25312307,-0.05545301,0.,0.63192871,-0.13189082,-0.15827199,0.,0
 .00237379,0.55717937,0.,0.,-0.05004687,0.,0.,0.10481325,-0.05804254,-0
 .03782863,0.,-0.26200755,0.12562846,0.,0.57729585,0.03047641,0.0731689
 3,0.,0.04913043,-0.14756667,0.,-0.03268439,0.61039221,0.,0.,-0.0029563
 1,0.,0.,-0.04981770,0.,0.,0.10515439,-0.01992927,-0.03488283,0.,0.0371
 1472,0.02449495,0.,-0.10048973,0.04385293,0.,0.57434383,-0.03488284,-0
 .06551840,0.,0.09284282,-0.02229270,0.,-0.03264509,-0.30908490,0.,0.03
 152851,0.61476456,0.,0.,0.00928056,0.,0.,-0.00291650,0.,0.,-0.04981767
 ,0.,0.,0.10481322,0.03711473,0.09284282,0.,-0.08433181,-0.00227622,0.,
 0.04343454,-0.08920587,0.,-0.25312298,-0.05545297,0.,0.63192892,0.0244
 9494,-0.02229270,0.,-0.00227621,-0.00111586,0.,-0.02090085,-0.02830816
 ,0.,-0.13189078,-0.15827194,0.,0.00237353,0.55717943,0.,0.,-0.00291650
 ,0.,0.,0.00928057,0.,0.,-0.00295631,0.,0.,-0.05004688,0.,0.,0.10481322
 ,-0.10048974,-0.03264510,0.,0.04343454,-0.02090084,0.,-0.02392583,0.03
 717933,0.,-0.05804254,-0.03782861,0.,-0.26200785,0.12562861,0.,0.57729
 623,0.04385293,-0.30908446,0.,-0.08920588,-0.02830815,0.,0.03717934,-0
 .06157319,0.,0.03047641,0.07316892,0.,0.04913059,-0.14756675,0.,-0.032
 68460,0.61039176,0.,0.,-0.04981770,0.,0.,-0.00295631,0.,0.,0.00928580,
 0.,0.,-0.00295631,0.,0.,-0.04981767,0.,0.,0.10515439,-0.01581737,-0.01
 244032,0.,0.00223411,0.00134592,0.,-0.00005569,-0.00020870,0.,0.000921
 13,0.00462402,0.,-0.03935330,-0.02090004,0.,-0.15474115,-0.07134540,0.
 ,0.21425696,-0.03281615,-0.02247330,0.,0.00395926,-0.00210142,0.,-0.00
 020870,0.00015563,0.,0.00201068,-0.00078843,0.,-0.00052420,0.00106268,
 0.,-0.07134538,-0.08249758,0.,0.09501308,0.11804781,0.,0.,0.00274411,0
 .,0.,0.00468196,0.,0.,-0.00195881,0.,0.,0.00468196,0.,0.,0.00274412,0.
 ,0.,-0.02178321,0.,0.,0.01051510,-0.16180149,0.06712184,0.,-0.04039784
 ,0.01859575,0.,0.00124296,-0.00449443,0.,-0.00007839,0.00020604,0.,0.0
 0253661,-0.00107723,0.,-0.01834426,0.01260387,0.,0.00271699,-0.0040180
 5,0.,0.22412588,0.06712352,-0.07463525,0.,-0.00178505,0.00210986,0.,-0
 .00187078,-0.00115960,0.,0.00018466,0.00018031,0.,-0.00368794,-0.00239
 537,0.,0.03301411,-0.01981619,0.,0.00493271,-0.00982065,0.,-0.08955132
 ,0.10752113,0.,0.,-0.02121945,0.,0.,0.00273076,0.,0.,0.00465783,0.,0.,
 -0.00194828,0.,0.,0.00465446,0.,0.,0.00276709,0.,0.,-0.00087950,0.,0.,
 0.01002926,-0.00007840,0.00020604,0.,0.00253662,-0.00107724,0.,-0.0183
 4424,0.01260386,0.,-0.16180148,0.06712188,0.,-0.04039787,0.01859575,0.
 ,0.00124296,-0.00449443,0.,-0.00168050,0.00026311,0.,-0.00159382,0.000
 91205,0.,0.22412590,0.00018466,0.00018030,0.,-0.00368794,-0.00239536,0
 .,0.03301411,-0.01981619,0.,0.06712359,-0.07463531,0.,-0.00178504,0.00
 210985,0.,-0.00187079,-0.00115959,0.,-0.00036864,0.00035038,0.,0.00091
 205,-0.00040054,0.,-0.08955134,0.10752117,0.,0.,-0.00194828,0.,0.,0.00
 465446,0.,0.,0.00276709,0.,0.,-0.02121947,0.,0.,0.00273078,0.,0.,0.004
 65782,0.,0.,0.00002805,0.,0.,0.00007572,0.,0.,0.01002927,-0.00330941,-
 0.00072813,0.,0.00028497,0.00000069,0.,-0.00323453,0.00039614,0.,0.000
 21147,-0.02234531,0.,-0.03832007,0.00460568,0.,-0.00113213,0.02429972,
 0.,-0.00689392,0.00979864,0.,-0.00019733,0.00122685,0.,-0.00652884,-0.
 01013020,0.,0.05913522,0.00188257,0.00345066,0.,0.00002207,-0.00018306
 ,0.,-0.00222751,0.00331790,0.,-0.00196452,-0.03849949,0.,0.00460396,-0
 .19811671,0.,0.00388947,-0.03702830,0.,0.00084791,-0.00020970,0.,0.000
 58249,-0.00111338,0.,-0.00114412,-0.00082072,0.,-0.00601752,0.27251186
 ,0.,0.,0.00465446,0.,0.,-0.00194828,0.,0.,0.00465782,0.,0.,0.00273078,
 0.,0.,-0.02121947,0.,0.,0.00276709,0.,0.,-0.00087951,0.,0.,0.00002962,
 0.,0.,-0.00092554,0.,0.,0.01002927,0.00021148,-0.02234532,0.,-0.038320
 07,0.00460559,0.,-0.00113212,0.02429970,0.,-0.00330941,-0.00072813,0.,
 0.00028497,0.00000069,0.,-0.00323454,0.00039614,0.,-0.00010652,-0.0011
 6554,0.,-0.00652880,-0.01013016,0.,-0.00019733,0.00122685,0.,0.0000910
 9,0.00005899,0.,0.05913520,-0.00196451,-0.03849946,0.,0.00460391,-0.19
 811668,0.,0.00388946,-0.03702833,0.,0.00188257,0.00345066,0.,0.0000220
 7,-0.00018306,0.,-0.00222750,0.00331790,0.,-0.00053379,-0.00122361,0.,
 -0.00114411,-0.00082070,0.,0.00058248,-0.00111338,0.,0.00005899,-0.002
 08545,0.,-0.00601749,0.27251182,0.,0.,0.00273076,0.,0.,-0.02121946,0.,
 0.,0.00276710,0.,0.,0.00465446,0.,0.,-0.00194828,0.,0.,0.00465782,0.,0
 .,0.00002804,0.,0.,-0.00092554,0.,0.,0.00002961,0.,0.,0.00007572,0.,0.
 ,0.01002926,0.00092113,0.00462402,0.,-0.03935333,-0.02090003,0.,-0.154
 74111,-0.07134542,0.,-0.01581735,-0.01244032,0.,0.00223412,0.00134592,
 0.,-0.00005569,-0.00020870,0.,-0.00148074,-0.00096675,0.,-0.00168050,-
 0.00036864,0.,0.00271699,0.00493270,0.,-0.00010652,-0.00053379,0.,-0.0
 0689395,0.00084792,0.,0.21425697,0.00201068,-0.00078843,0.,-0.00052420
 ,0.00106266,0.,-0.07134543,-0.08249763,0.,-0.03281616,-0.02247328,0.,0
 .00395926,-0.00210141,0.,-0.00020869,0.00015564,0.,-0.00096676,-0.0005
 0181,0.,0.00026311,0.00035038,0.,-0.00401803,-0.00982061,0.,-0.0011655
 4,-0.00122361,0.,0.00979867,-0.00020971,0.,0.09501309,0.11804783,0.,0.
 ,0.00468196,0.,0.,0.00274412,0.,0.,-0.02178322,0.,0.,0.00274412,0.,0.,
 0.00468197,0.,0.,-0.00195881,0.,0.,0.00007769,0.,0.,0.00002805,0.,0.,-
 0.00087951,0.,0.,0.00002805,0.,0.,-0.00087950,0.,0.,0.01051510\\0.0001
 8667,-0.00008836,0.,-0.00000548,-0.00020646,0.,-0.00013554,-0.00008340
 ,0.,-0.00018668,0.00008845,0.,0.00000543,0.00020650,0.,0.00013562,0.00
 008326,0.,0.00004387,0.00002701,0.,0.00003441,-0.00002569,0.,-0.000034
 47,0.00002562,0.,-0.00000728,0.00004232,0.,0.00000738,-0.00004230,0.,-
 0.00004392,-0.00002695,0.\\\@


 WE ARE PERHAPS NOT FAR REMOVED FROM THE TIME WHEN WE SHALL BE ABLE TO SUBMIT
 THE BULK OF CHEMICAL PHENOMENA TO CALCULATION.

            -- JOSEPH LOUIS GAY-LUSSAC
               MEMOIRES DE LA SOCIETE D'ARCUEIL, 2, 207 (1808)
 Job cpu time:       0 days  0 hours 46 minutes 45.3 seconds.
 Elapsed time:       0 days  0 hours 11 minutes 42.5 seconds.
 File lengths (MBytes):  RWF=    191 Int=      0 D2E=      0 Chk=     34 Scr=      1
 Normal termination of Gaussian 16 at Tue Dec  9 09:40:30 2025.
