 Entering Gaussian System, Link 0=g16
 Initial command:
 /share/software/user/restricted/gaussian/g16.B01/l1.exe "/home/users/jlapier/Chloroaromatics/Gau-22352.inp" -scrdir="/home/users/jlapier/Chloroaromatics/"
 Entering Link 1 = /share/software/user/restricted/gaussian/g16.B01/l1.exe PID=     22353.
  
 Copyright (c) 1988-2017, Gaussian, Inc.  All Rights Reserved.
  
 This is part of the Gaussian(R) 16 program.  It is based on
 the Gaussian(R) 09 system (copyright 2009, Gaussian, Inc.),
 the Gaussian(R) 03 system (copyright 2003, Gaussian, Inc.),
 the Gaussian(R) 98 system (copyright 1998, Gaussian, Inc.),
 the Gaussian(R) 94 system (copyright 1995, Gaussian, Inc.),
 the Gaussian 92(TM) system (copyright 1992, Gaussian, Inc.),
 the Gaussian 90(TM) system (copyright 1990, Gaussian, Inc.),
 the Gaussian 88(TM) system (copyright 1988, Gaussian, Inc.),
 the Gaussian 86(TM) system (copyright 1986, Carnegie Mellon
 University), and the Gaussian 82(TM) system (copyright 1983,
 Carnegie Mellon University). Gaussian is a federally registered
 trademark of Gaussian, Inc.
  
 This software contains proprietary and confidential information,
 including trade secrets, belonging to Gaussian, Inc.
  
 This software is provided under written license and may be
 used, copied, transmitted, or stored only in accord with that
 written license.
  
 The following legend is applicable only to US Government
 contracts under FAR:
  
                    RESTRICTED RIGHTS LEGEND
  
 Use, reproduction and disclosure by the US Government is
 subject to restrictions as set forth in subparagraphs (a)
 and (c) of the Commercial Computer Software - Restricted
 Rights clause in FAR 52.227-19.
  
 Gaussian, Inc.
 340 Quinnipiac St., Bldg. 40, Wallingford CT 06492
  
  
 ---------------------------------------------------------------
 Warning -- This program may not be used in any manner that
 competes with the business of Gaussian, Inc. or will provide
 assistance to any competitor of Gaussian, Inc.  The licensee
 of this program is prohibited from giving any competitor of
 Gaussian, Inc. access to this program.  By using this program,
 the user acknowledges that Gaussian, Inc. is engaged in the
 business of creating and licensing software in the field of
 computational chemistry and represents and warrants to the
 licensee that it is not a competitor of Gaussian, Inc. and that
 it will not use this program in any manner prohibited above.
 ---------------------------------------------------------------
  

 Cite this work as:
 Gaussian 16, Revision B.01,
 M. J. Frisch, G. W. Trucks, H. B. Schlegel, G. E. Scuseria, 
 M. A. Robb, J. R. Cheeseman, G. Scalmani, V. Barone, 
 G. A. Petersson, H. Nakatsuji, X. Li, M. Caricato, A. V. Marenich, 
 J. Bloino, B. G. Janesko, R. Gomperts, B. Mennucci, H. P. Hratchian, 
 J. V. Ortiz, A. F. Izmaylov, J. L. Sonnenberg, D. Williams-Young, 
 F. Ding, F. Lipparini, F. Egidi, J. Goings, B. Peng, A. Petrone, 
 T. Henderson, D. Ranasinghe, V. G. Zakrzewski, J. Gao, N. Rega, 
 G. Zheng, W. Liang, M. Hada, M. Ehara, K. Toyota, R. Fukuda, 
 J. Hasegawa, M. Ishida, T. Nakajima, Y. Honda, O. Kitao, H. Nakai, 
 T. Vreven, K. Throssell, J. A. Montgomery, Jr., J. E. Peralta, 
 F. Ogliaro, M. J. Bearpark, J. J. Heyd, E. N. Brothers, K. N. Kudin, 
 V. N. Staroverov, T. A. Keith, R. Kobayashi, J. Normand, 
 K. Raghavachari, A. P. Rendell, J. C. Burant, S. S. Iyengar, 
 J. Tomasi, M. Cossi, J. M. Millam, M. Klene, C. Adamo, R. Cammi, 
 J. W. Ochterski, R. L. Martin, K. Morokuma, O. Farkas, 
 J. B. Foresman, and D. J. Fox, Gaussian, Inc., Wallingford CT, 2016.
 
 ******************************************
 Gaussian 16:  ES64L-G16RevB.01 20-Dec-2017
                10-Dec-2025 
 ******************************************
 %mem=8GB
 %nprocshare=4
 Will use up to    4 processors via shared memory.
 %oldchk=geometry_chks/1234-12_4-ClBzNeutralRadical.chk
 %chk=frequency_chks/1234-12_4-ClBzNeutralRadical_Freq.chk
 Copying data from "geometry_chks/1234-12_4-ClBzNeutralRadical.chk" to current chk file "frequency_chks/1234-12_4-ClBzNeutralRadical_Freq.chk"
 IOpt=  2 FromEx=T IUOpen= 4 IOptOp= 5 NList=   0 IFRang= 0 IUIn= 4 IUOut= 2.
 -------------------------------------------------------
 # opt freq 6-311++g(d,p) guess=read geom=allcheck m062x
 -------------------------------------------------------
 1/18=20,19=15,26=3,29=7,38=1/1,3;
 2/9=110,12=2,40=1/2;
 3/5=4,6=6,7=1111,11=2,14=-4,25=1,30=1,71=1,74=-55,116=-2/1,2,3;
 4/5=1/1;
 5/5=2,38=6/2;
 6/7=2,8=2,9=2,10=2,28=1/1;
 7//1,2,3,16;
 1/18=20,19=15,26=3/3(2);
 2/9=110/2;
 99//99;
 2/9=110/2;
 3/5=4,6=6,7=1111,11=2,14=-2,25=1,30=1,71=1,74=-55/1,2,3;
 4/5=5,16=3,69=1/1;
 5/5=2,38=5/2;
 7//1,2,3,16;
 1/18=20,19=15,26=3/3(-5);
 2/9=110/2;
 6/7=2,8=2,9=2,10=2,19=2,28=1/1;
 99/9=1/99;
 Structure from the checkpoint file:  "frequency_chks/1234-12_4-ClBzNeutralRadical_Freq.chk"
 --------------------------------
 Neutral Radical (removed 3) 12_4
 --------------------------------
 Charge =  0 Multiplicity = 2
 Redundant internal coordinates found in file.  (old form).
 C,0,-3.186302221,0.1262488995,0.
 C,0,-1.9591971638,0.7466715628,0.
 C,0,-0.7062810086,0.1817918324,0.
 C,0,-0.6828439955,-1.232407898,0.
 C,0,-1.8874913444,-1.944025361,0.
 C,0,-3.1367223587,-1.2929280976,0.
 Cl,0,-4.5552834809,-2.2072204404,0.
 Cl,0,-4.6217404764,0.9969727476,0.
 Cl,0,0.7017843299,1.1003714626,0.
 H,0,0.2769785194,-1.7685405643,0.
 H,0,-1.8576207999,-3.0451641435,0.
 Recover connectivity data from disk.

 GradGradGradGradGradGradGradGradGradGradGradGradGradGradGradGradGradGrad
 Berny optimization.
 Initialization pass.
                           ----------------------------
                           !    Initial Parameters    !
                           ! (Angstroms and Degrees)  !
 --------------------------                            --------------------------
 ! Name  Definition              Value          Derivative Info.                !
 --------------------------------------------------------------------------------
 ! R1    R(1,2)                  1.375          estimate D2E/DX2                !
 ! R2    R(1,6)                  1.42           estimate D2E/DX2                !
 ! R3    R(1,8)                  1.6789         estimate D2E/DX2                !
 ! R4    R(2,3)                  1.3744         estimate D2E/DX2                !
 ! R5    R(3,4)                  1.4144         estimate D2E/DX2                !
 ! R6    R(3,9)                  1.6812         estimate D2E/DX2                !
 ! R7    R(4,5)                  1.3991         estimate D2E/DX2                !
 ! R8    R(4,10)                 1.0994         estimate D2E/DX2                !
 ! R9    R(5,6)                  1.4087         estimate D2E/DX2                !
 ! R10   R(5,11)                 1.1015         estimate D2E/DX2                !
 ! R11   R(6,7)                  1.6877         estimate D2E/DX2                !
 ! A1    A(2,1,6)              114.8202         estimate D2E/DX2                !
 ! A2    A(2,1,8)              121.9383         estimate D2E/DX2                !
 ! A3    A(6,1,8)              123.2415         estimate D2E/DX2                !
 ! A4    A(1,2,3)              128.9106         estimate D2E/DX2                !
 ! A5    A(2,3,4)              115.2178         estimate D2E/DX2                !
 ! A6    A(2,3,9)              122.6124         estimate D2E/DX2                !
 ! A7    A(4,3,9)              122.1698         estimate D2E/DX2                !
 ! A8    A(3,4,5)              119.622          estimate D2E/DX2                !
 ! A9    A(3,4,10)             120.1361         estimate D2E/DX2                !
 ! A10   A(5,4,10)             120.2419         estimate D2E/DX2                !
 ! A11   A(4,5,6)              121.9001         estimate D2E/DX2                !
 ! A12   A(4,5,11)             119.0176         estimate D2E/DX2                !
 ! A13   A(6,5,11)             119.0823         estimate D2E/DX2                !
 ! A14   A(1,6,5)              119.5293         estimate D2E/DX2                !
 ! A15   A(1,6,7)              120.8018         estimate D2E/DX2                !
 ! A16   A(5,6,7)              119.6689         estimate D2E/DX2                !
 ! D1    D(6,1,2,3)              0.0            estimate D2E/DX2                !
 ! D2    D(8,1,2,3)            180.0            estimate D2E/DX2                !
 ! D3    D(2,1,6,5)              0.0            estimate D2E/DX2                !
 ! D4    D(2,1,6,7)            180.0            estimate D2E/DX2                !
 ! D5    D(8,1,6,5)            180.0            estimate D2E/DX2                !
 ! D6    D(8,1,6,7)              0.0            estimate D2E/DX2                !
 ! D7    D(1,2,3,4)              0.0            estimate D2E/DX2                !
 ! D8    D(1,2,3,9)            180.0            estimate D2E/DX2                !
 ! D9    D(2,3,4,5)              0.0            estimate D2E/DX2                !
 ! D10   D(2,3,4,10)           180.0            estimate D2E/DX2                !
 ! D11   D(9,3,4,5)            180.0            estimate D2E/DX2                !
 ! D12   D(9,3,4,10)             0.0            estimate D2E/DX2                !
 ! D13   D(3,4,5,6)              0.0            estimate D2E/DX2                !
 ! D14   D(3,4,5,11)           180.0            estimate D2E/DX2                !
 ! D15   D(10,4,5,6)           180.0            estimate D2E/DX2                !
 ! D16   D(10,4,5,11)            0.0            estimate D2E/DX2                !
 ! D17   D(4,5,6,1)              0.0            estimate D2E/DX2                !
 ! D18   D(4,5,6,7)            180.0            estimate D2E/DX2                !
 ! D19   D(11,5,6,1)           180.0            estimate D2E/DX2                !
 ! D20   D(11,5,6,7)             0.0            estimate D2E/DX2                !
 --------------------------------------------------------------------------------
 Trust Radius=3.00D-01 FncErr=1.00D-07 GrdErr=1.00D-06 EigMax=2.50D+02 EigMin=1.00D-04
 Number of steps in this run=     57 maximum allowed number of steps=    100.
 GradGradGradGradGradGradGradGradGradGradGradGradGradGradGradGradGradGrad

                          Input orientation:                          
 ---------------------------------------------------------------------
 Center     Atomic      Atomic             Coordinates (Angstroms)
 Number     Number       Type             X           Y           Z
 ---------------------------------------------------------------------
      1          6           0       -3.186302    0.126249    0.000000
      2          6           0       -1.959197    0.746672    0.000000
      3          6           0       -0.706281    0.181792    0.000000
      4          6           0       -0.682844   -1.232408    0.000000
      5          6           0       -1.887491   -1.944025    0.000000
      6          6           0       -3.136722   -1.292928    0.000000
      7         17           0       -4.555283   -2.207220    0.000000
      8         17           0       -4.621740    0.996973    0.000000
      9         17           0        0.701784    1.100371    0.000000
     10          1           0        0.276979   -1.768541    0.000000
     11          1           0       -1.857621   -3.045164    0.000000
 ---------------------------------------------------------------------
                    Distance matrix (angstroms):
                    1          2          3          4          5
     1  C    0.000000
     2  C    1.375031   0.000000
     3  C    2.480643   1.374368   0.000000
     4  C    2.848377   2.354959   1.414394   0.000000
     5  C    2.443961   2.691652   2.431945   1.399134   0.000000
     6  C    1.420043   2.355108   2.842858   2.454625   1.408725
     7  Cl   2.705400   3.932574   4.530143   3.993250   2.680744
     8  Cl   1.678881   2.674283   3.999418   4.526041   4.015668
     9  Cl   4.008258   2.684386   1.681201   2.712758   3.996586
    10  H    3.947726   3.365527   2.184169   1.099408   2.171572
    11  H    3.438496   3.793196   3.426197   2.160136   1.101544
                    6          7          8          9         10
     6  C    0.000000
     7  Cl   1.687675   0.000000
     8  Cl   2.729272   3.204882   0.000000
     9  Cl   4.523496   6.211033   5.324529   0.000000
    10  H    3.446674   4.852133   5.625434   2.900192   0.000000
    11  H    2.169431   2.824807   4.896859   4.871963   2.487224
                   11
    11  H    0.000000
 Stoichiometry    C6H2Cl3(2)
 Framework group  CS[SG(C6H2Cl3)]
 Deg. of freedom    19
 Full point group                 CS      NOp   2
 Largest Abelian subgroup         CS      NOp   2
 Largest concise Abelian subgroup C1      NOp   1
                         Standard orientation:                         
 ---------------------------------------------------------------------
 Center     Atomic      Atomic             Coordinates (Angstroms)
 Number     Number       Type             X           Y           Z
 ---------------------------------------------------------------------
      1          6           0        0.000000    0.883048    0.000000
      2          6           0        1.140954    0.115627    0.000000
      3          6           0        1.260386   -1.253542    0.000000
      4          6           0        0.037998   -1.965076    0.000000
      5          6           0       -1.171545   -1.261813    0.000000
      6          6           0       -1.213954    0.146274    0.000000
      7         17           0       -2.704859    0.937127    0.000000
      8         17           0        0.058212    2.560920    0.000000
      9         17           0        2.749902   -2.033143    0.000000
     10          1           0        0.039283   -3.064483    0.000000
     11          1           0       -2.117654   -1.825974    0.000000
 ---------------------------------------------------------------------
 Rotational constants (GHZ):           1.8609597           0.6063690           0.4573482
 Standard basis: 6-311++G(d,p) (5D, 7F)
 There are   183 symmetry adapted cartesian basis functions of A'  symmetry.
 There are    62 symmetry adapted cartesian basis functions of A"  symmetry.
 There are   174 symmetry adapted basis functions of A'  symmetry.
 There are    62 symmetry adapted basis functions of A"  symmetry.
   236 basis functions,   393 primitive gaussians,   245 cartesian basis functions
    45 alpha electrons       44 beta electrons
       nuclear repulsion energy       614.3412252097 Hartrees.
 NAtoms=   11 NActive=   11 NUniq=   11 SFac= 1.00D+00 NAtFMM=   60 NAOKFM=F Big=F
 Integral buffers will be    131072 words long.
 Raffenetti 2 integral format.
 Two-electron integral symmetry is turned on.
 One-electron integrals computed using PRISM.
 NBasis=   236 RedAO= T EigKep=  2.07D-06  NBF=   174    62
 NBsUse=   235 1.00D-06 EigRej=  9.44D-07 NBFU=   173    62
 Initial guess from the checkpoint file:  "frequency_chks/1234-12_4-ClBzNeutralRadical_Freq.chk"
 B after Tr=    -0.000000    0.000000    0.000000
         Rot=    1.000000    0.000000    0.000000    0.000000 Ang=   0.00 deg.
 Initial guess orbital symmetries:
 Alpha Orbitals:
       Occupied  (A') (A') (A') (A') (A') (A') (A') (A') (A') (A')
                 (A') (A') (A") (A') (A") (A') (A") (A') (A') (A')
                 (A") (A') (A") (A") (A") (A") (A') (A') (A') (A")
                 (A') (A') (A') (A') (A') (A') (A') (A') (A') (A')
                 (A') (A') (A') (A') (A')
       Virtual   (A') (A') (A') (A') (A') (A') (A') (A') (A') (A')
                 (A') (A') (A') (A') (A') (A') (A') (A') (A') (A')
                 (A') (A') (A') (A') (A') (A') (A') (A') (A') (A')
                 (A') (A') (A') (A') (A') (A') (A') (A') (A') (A')
                 (A') (A') (A') (A') (A') (A') (A') (A') (A') (A')
                 (A') (A') (A') (A') (A') (A') (A') (A') (A') (A')
                 (A') (A') (A') (A') (A') (A') (A') (A') (A') (A')
                 (A') (A') (A') (A') (A') (A') (A') (A') (A') (A')
                 (A') (A') (A') (A') (A') (A') (A') (A') (A') (A')
                 (A') (A') (A') (A') (A') (A') (A') (A') (A') (A')
                 (A') (A') (A') (A') (A') (A') (A') (A') (A') (A')
                 (A') (A') (A') (A') (A') (A') (A') (A') (A') (A')
                 (A') (A') (A') (A') (A') (A') (A') (A') (A') (A')
                 (A') (A') (A') (A') (A') (A') (A') (A") (A") (A")
                 (A") (A") (A") (A") (A") (A") (A") (A") (A") (A")
                 (A") (A") (A") (A") (A") (A") (A") (A") (A") (A")
                 (A") (A") (A") (A") (A") (A") (A") (A") (A") (A")
                 (A") (A") (A") (A") (A") (A") (A") (A") (A") (A")
                 (A") (A") (A") (A") (A") (A") (A") (A") (A") (A")
 Beta  Orbitals:
       Occupied  (A') (A') (A') (A') (A') (A') (A') (A') (A') (A')
                 (A') (A') (A") (A') (A") (A') (A") (A') (A') (A')
                 (A") (A") (A") (A') (A") (A") (A') (A') (A') (A")
                 (A') (A') (A') (A') (A') (A') (A') (A') (A') (A')
                 (A') (A') (A') (A')
       Virtual   (A') (A') (A') (A') (A') (A') (A') (A') (A') (A')
                 (A') (A') (A') (A') (A') (A') (A') (A') (A') (A')
                 (A') (A') (A') (A') (A') (A') (A') (A') (A') (A')
                 (A') (A') (A') (A') (A') (A') (A') (A') (A') (A')
                 (A') (A') (A') (A') (A') (A') (A') (A') (A') (A')
                 (A') (A') (A') (A') (A') (A') (A') (A') (A') (A')
                 (A') (A') (A') (A') (A') (A') (A') (A') (A') (A')
                 (A') (A') (A') (A') (A') (A') (A') (A') (A') (A')
                 (A') (A') (A') (A') (A') (A') (A') (A') (A') (A')
                 (A') (A') (A') (A') (A') (A') (A') (A') (A') (A')
                 (A') (A') (A') (A') (A') (A') (A') (A') (A') (A')
                 (A') (A') (A') (A') (A') (A') (A') (A') (A') (A')
                 (A') (A') (A') (A') (A') (A') (A') (A') (A') (A')
                 (A') (A') (A') (A') (A') (A') (A') (A') (A") (A")
                 (A") (A") (A") (A") (A") (A") (A") (A") (A") (A")
                 (A") (A") (A") (A") (A") (A") (A") (A") (A") (A")
                 (A") (A") (A") (A") (A") (A") (A") (A") (A") (A")
                 (A") (A") (A") (A") (A") (A") (A") (A") (A") (A")
                 (A") (A") (A") (A") (A") (A") (A") (A") (A") (A")
                 (A")
 Initial guess <Sx>= 0.0000 <Sy>= 0.0000 <Sz>= 0.5000 <S**2>= 0.7500 S= 0.5000
 Keep R1 and R2 ints in memory in symmetry-blocked form, NReq=617299900.
 Requested convergence on RMS density matrix=1.00D-08 within 128 cycles.
 Requested convergence on MAX density matrix=1.00D-06.
 Requested convergence on             energy=1.00D-06.
 No special actions if energy rises.
 EnCoef did     3 forward-backward iterations
 EnCoef did     2 forward-backward iterations
 EnCoef did     3 forward-backward iterations
 SCF Done:  E(UM062X) =  -1610.29939148     A.U. after   29 cycles
            NFock= 29  Conv=0.70D-08     -V/T= 2.0023
 <Sx>= 0.0000 <Sy>= 0.0000 <Sz>= 0.5000 <S**2>= 0.7633 S= 0.5066
 <L.S>=  0.00000000000    
 Annihilation of the first spin contaminant:
 S**2 before annihilation     0.7633,   after     0.7501

 **********************************************************************

            Population analysis using the SCF Density.

 **********************************************************************

 Orbital symmetries:
 Alpha Orbitals:
       Occupied  (A') (A') (A') (A') (A') (A') (A') (A') (A') (A')
                 (A') (A') (A') (A') (A') (A") (A') (A") (A') (A")
                 (A') (A') (A') (A') (A') (A') (A') (A') (A') (A')
                 (A') (A') (A') (A") (A') (A') (A") (A") (A') (A')
                 (A') (A") (A') (A") (A")
       Virtual   (A") (A") (A') (A') (A') (A') (A') (A') (A") (A')
                 (A") (A') (A') (A") (A') (A') (A") (A") (A') (A')
                 (A') (A") (A') (A') (A") (A') (A") (A') (A') (A")
                 (A') (A') (A') (A") (A') (A') (A') (A') (A') (A')
                 (A') (A') (A') (A') (A') (A') (A') (A') (A') (A')
                 (A') (A") (A') (A") (A') (A') (A') (A") (A') (A")
                 (A') (A') (A') (A") (A') (A") (A") (A") (A') (A')
                 (A') (A") (A') (A') (A') (A') (A") (A') (A') (A")
                 (A') (A') (A') (A") (A') (A") (A") (A') (A') (A')
                 (A") (A') (A') (A') (A') (A") (A') (A") (A') (A')
                 (A') (A") (A') (A') (A') (A") (A') (A") (A') (A")
                 (A') (A') (A') (A') (A") (A') (A") (A') (A') (A')
                 (A') (A") (A") (A") (A') (A") (A') (A') (A') (A")
                 (A') (A') (A") (A") (A') (A") (A") (A') (A') (A')
                 (A') (A') (A') (A') (A') (A') (A') (A") (A') (A')
                 (A') (A") (A") (A") (A") (A') (A") (A') (A') (A')
                 (A') (A') (A') (A') (A') (A') (A') (A') (A') (A')
                 (A') (A') (A') (A') (A') (A') (A') (A') (A") (A")
                 (A") (A') (A') (A') (A') (A') (A') (A') (A') (A')
 Beta  Orbitals:
       Occupied  (A') (A') (A') (A') (A') (A') (A') (A') (A') (A')
                 (A') (A') (A') (A') (A') (A") (A') (A") (A') (A")
                 (A') (A') (A') (A') (A') (A') (A') (A') (A') (A')
                 (A') (A') (A') (A") (A') (A') (A") (A") (A') (A')
                 (A") (A') (A") (A")
       Virtual   (A') (A") (A") (A') (A') (A') (A') (A') (A') (A")
                 (A') (A") (A') (A") (A') (A') (A') (A") (A') (A")
                 (A') (A') (A") (A') (A') (A") (A') (A') (A") (A')
                 (A") (A') (A') (A') (A") (A') (A') (A') (A') (A')
                 (A') (A') (A') (A') (A') (A') (A') (A') (A') (A')
                 (A') (A') (A') (A") (A") (A') (A') (A") (A') (A')
                 (A') (A") (A') (A') (A") (A') (A") (A") (A") (A')
                 (A') (A") (A') (A') (A') (A') (A') (A") (A') (A')
                 (A") (A') (A') (A') (A") (A') (A") (A") (A') (A')
                 (A') (A") (A') (A') (A') (A') (A") (A') (A") (A')
                 (A') (A') (A') (A") (A') (A') (A") (A') (A') (A")
                 (A") (A') (A') (A') (A") (A') (A') (A") (A') (A')
                 (A') (A') (A") (A") (A") (A') (A") (A') (A') (A')
                 (A") (A') (A') (A") (A") (A') (A") (A") (A') (A')
                 (A') (A') (A') (A') (A') (A') (A') (A') (A") (A')
                 (A') (A') (A") (A") (A") (A") (A') (A") (A') (A')
                 (A') (A') (A') (A') (A') (A') (A') (A') (A') (A')
                 (A') (A') (A') (A') (A') (A') (A') (A') (A') (A")
                 (A") (A") (A') (A') (A') (A') (A') (A') (A') (A')
                 (A')
 The electronic state is 2-A'.
 Alpha  occ. eigenvalues -- -102.70137-102.69894-102.69798 -10.64274 -10.64065
 Alpha  occ. eigenvalues --  -10.63714 -10.60972 -10.59025 -10.58724  -9.84468
 Alpha  occ. eigenvalues --   -9.84233  -9.84142  -7.57034  -7.56790  -7.56673
 Alpha  occ. eigenvalues --   -7.56283  -7.56274  -7.56048  -7.56046  -7.55979
 Alpha  occ. eigenvalues --   -7.55956  -1.05688  -1.01913  -0.99132  -0.94342
 Alpha  occ. eigenvalues --   -0.86550  -0.83122  -0.72132  -0.70280  -0.60626
 Alpha  occ. eigenvalues --   -0.59738  -0.55703  -0.53702  -0.52511  -0.50056
 Alpha  occ. eigenvalues --   -0.48005  -0.46864  -0.43925  -0.41450  -0.39933
 Alpha  occ. eigenvalues --   -0.39635  -0.39563  -0.34522  -0.33816  -0.30607
 Alpha virt. eigenvalues --   -0.02137  -0.01579  -0.00399   0.01685   0.02082
 Alpha virt. eigenvalues --    0.03902   0.04092   0.05165   0.05377   0.06333
 Alpha virt. eigenvalues --    0.07151   0.07408   0.08039   0.08065   0.09224
 Alpha virt. eigenvalues --    0.10507   0.10950   0.11554   0.11628   0.11926
 Alpha virt. eigenvalues --    0.12083   0.13175   0.13427   0.14449   0.15075
 Alpha virt. eigenvalues --    0.15114   0.15977   0.16000   0.16985   0.17865
 Alpha virt. eigenvalues --    0.17919   0.19039   0.19620   0.20313   0.21235
 Alpha virt. eigenvalues --    0.22314   0.23151   0.23686   0.24371   0.24838
 Alpha virt. eigenvalues --    0.26398   0.26631   0.28020   0.28875   0.30010
 Alpha virt. eigenvalues --    0.31105   0.32025   0.33106   0.35426   0.42924
 Alpha virt. eigenvalues --    0.43882   0.45673   0.45874   0.47456   0.48195
 Alpha virt. eigenvalues --    0.49552   0.49680   0.49692   0.51592   0.54556
 Alpha virt. eigenvalues --    0.54643   0.55491   0.58192   0.58876   0.60230
 Alpha virt. eigenvalues --    0.61166   0.62199   0.63607   0.65339   0.65968
 Alpha virt. eigenvalues --    0.68741   0.68801   0.70287   0.75070   0.75496
 Alpha virt. eigenvalues --    0.79264   0.79826   0.83826   0.86328   0.86582
 Alpha virt. eigenvalues --    0.87652   0.87767   0.89436   0.89918   0.90134
 Alpha virt. eigenvalues --    0.90888   0.91749   0.93168   0.94085   0.95508
 Alpha virt. eigenvalues --    0.95950   0.97595   0.98489   0.99498   1.01754
 Alpha virt. eigenvalues --    1.02046   1.03751   1.07991   1.10066   1.12189
 Alpha virt. eigenvalues --    1.19136   1.21436   1.22162   1.26747   1.26826
 Alpha virt. eigenvalues --    1.28518   1.30608   1.34094   1.34741   1.35807
 Alpha virt. eigenvalues --    1.45452   1.49802   1.53146   1.56683   1.58802
 Alpha virt. eigenvalues --    1.66611   1.68894   1.71365   1.72658   1.79720
 Alpha virt. eigenvalues --    1.83857   1.85129   1.87566   1.90045   1.92658
 Alpha virt. eigenvalues --    1.94885   1.97262   2.01291   2.09931   2.14000
 Alpha virt. eigenvalues --    2.18350   2.21051   2.27063   2.29462   2.29535
 Alpha virt. eigenvalues --    2.30799   2.32953   2.33725   2.40868   2.43558
 Alpha virt. eigenvalues --    2.45035   2.47592   2.53288   2.57103   2.60251
 Alpha virt. eigenvalues --    2.65142   2.66260   2.66820   2.71604   2.72401
 Alpha virt. eigenvalues --    2.75528   2.79615   2.82153   2.90079   2.92155
 Alpha virt. eigenvalues --    2.98979   3.09326   3.12783   3.13910   3.24041
 Alpha virt. eigenvalues --    3.30954   3.34760   3.43840   3.60346   3.71054
 Alpha virt. eigenvalues --    3.89236   4.05716   4.05897   4.75456   9.94115
 Alpha virt. eigenvalues --    9.98782  10.00367  23.40622  23.86606  23.92395
 Alpha virt. eigenvalues --   23.99490  24.10884  24.15783  25.88154  25.92118
 Alpha virt. eigenvalues --   25.96846  26.15446  26.18009  26.32306  26.57256
 Alpha virt. eigenvalues --   26.69649  26.86587 216.03885 216.09102 216.11028
  Beta  occ. eigenvalues -- -102.70104-102.69867-102.69777 -10.64316 -10.63997
  Beta  occ. eigenvalues --  -10.63754 -10.59983 -10.58963 -10.58750  -9.84454
  Beta  occ. eigenvalues --   -9.84221  -9.84133  -7.56952  -7.56718  -7.56637
  Beta  occ. eigenvalues --   -7.56289  -7.56243  -7.56057  -7.56024  -7.55964
  Beta  occ. eigenvalues --   -7.55938  -1.05164  -1.01647  -0.98910  -0.93931
  Beta  occ. eigenvalues --   -0.85179  -0.82686  -0.71178  -0.69207  -0.59978
  Beta  occ. eigenvalues --   -0.59138  -0.55078  -0.53444  -0.52021  -0.49240
  Beta  occ. eigenvalues --   -0.47619  -0.46818  -0.43846  -0.40813  -0.39741
  Beta  occ. eigenvalues --   -0.39421  -0.39374  -0.32452  -0.30567
  Beta virt. eigenvalues --   -0.09131  -0.02192  -0.00529  -0.00435   0.01641
  Beta virt. eigenvalues --    0.02540   0.03151   0.03974   0.05094   0.05290
  Beta virt. eigenvalues --    0.05655   0.06954   0.07574   0.07936   0.08034
  Beta virt. eigenvalues --    0.09285   0.10307   0.10951   0.11486   0.11659
  Beta virt. eigenvalues --    0.11850   0.12137   0.13022   0.13916   0.14483
  Beta virt. eigenvalues --    0.14754   0.15141   0.15670   0.16416   0.16435
  Beta virt. eigenvalues --    0.17959   0.18050   0.18961   0.19571   0.20288
  Beta virt. eigenvalues --    0.20815   0.22509   0.23175   0.23635   0.24126
  Beta virt. eigenvalues --    0.24862   0.26458   0.26903   0.28230   0.28797
  Beta virt. eigenvalues --    0.29195   0.31130   0.32527   0.33509   0.35987
  Beta virt. eigenvalues --    0.42340   0.43778   0.45577   0.45724   0.47535
  Beta virt. eigenvalues --    0.48281   0.49546   0.49731   0.49754   0.51640
  Beta virt. eigenvalues --    0.53555   0.54716   0.55141   0.56432   0.59084
  Beta virt. eigenvalues --    0.59622   0.61275   0.62207   0.63583   0.65582
  Beta virt. eigenvalues --    0.67390   0.68622   0.69232   0.70817   0.74305
  Beta virt. eigenvalues --    0.75261   0.79608   0.80037   0.83889   0.86259
  Beta virt. eigenvalues --    0.86726   0.87423   0.87863   0.89407   0.90004
  Beta virt. eigenvalues --    0.90291   0.90957   0.91793   0.92849   0.94873
  Beta virt. eigenvalues --    0.95583   0.96153   0.97250   0.98631   0.99437
  Beta virt. eigenvalues --    1.01445   1.02571   1.03585   1.08066   1.10023
  Beta virt. eigenvalues --    1.13091   1.18883   1.21304   1.22700   1.26475
  Beta virt. eigenvalues --    1.26853   1.29747   1.30603   1.34390   1.34774
  Beta virt. eigenvalues --    1.36112   1.46288   1.50399   1.53485   1.58908
  Beta virt. eigenvalues --    1.59585   1.66761   1.69075   1.71738   1.72791
  Beta virt. eigenvalues --    1.80291   1.84564   1.85612   1.87577   1.90555
  Beta virt. eigenvalues --    1.93114   1.95689   1.97779   2.01729   2.10222
  Beta virt. eigenvalues --    2.14013   2.19239   2.21291   2.27091   2.29532
  Beta virt. eigenvalues --    2.29757   2.31166   2.33019   2.34057   2.41276
  Beta virt. eigenvalues --    2.43790   2.45631   2.47684   2.53382   2.57281
  Beta virt. eigenvalues --    2.60623   2.65553   2.66462   2.66968   2.72087
  Beta virt. eigenvalues --    2.72602   2.75708   2.80113   2.82160   2.90218
  Beta virt. eigenvalues --    2.91961   3.02394   3.09371   3.13148   3.14191
  Beta virt. eigenvalues --    3.24073   3.31276   3.35058   3.43909   3.60966
  Beta virt. eigenvalues --    3.71400   3.89660   4.05959   4.06033   4.75690
  Beta virt. eigenvalues --    9.94127   9.98784  10.00375  23.40767  23.86714
  Beta virt. eigenvalues --   23.92428  23.99488  24.11112  24.16406  25.88179
  Beta virt. eigenvalues --   25.92118  25.96872  26.15496  26.18067  26.32347
  Beta virt. eigenvalues --   26.57402  26.69840  26.86734 216.03927 216.09145
  Beta virt. eigenvalues --  216.11071
          Condensed to atoms (all electrons):
               1          2          3          4          5          6
     1  C   18.212193   2.551897  -2.911419  -2.221144  -5.751308  -2.711348
     2  C    2.551897  18.781122  -1.675058  -6.253213  -1.486276  -5.015035
     3  C   -2.911419  -1.675058  19.115485  -1.430358  -2.240425  -3.373123
     4  C   -2.221144  -6.253213  -1.430358  14.824926   2.284703  -1.900043
     5  C   -5.751308  -1.486276  -2.240425   2.284703  11.733971   1.302639
     6  C   -2.711348  -5.015035  -3.373123  -1.900043   1.302639  18.471464
     7  Cl   0.061201   0.161515   0.265918  -0.156716   0.134527  -1.143987
     8  Cl  -1.206897  -0.279863  -0.244532   0.461474   0.163147   0.340068
     9  Cl   0.022544  -0.251652  -1.360995   0.481012   0.110029   0.137932
    10  H    0.028408  -0.064350  -0.147589   0.544117  -0.044232  -0.030496
    11  H   -0.076091   0.088987   0.021072  -0.081416   0.481305  -0.125614
               7          8          9         10         11
     1  C    0.061201  -1.206897   0.022544   0.028408  -0.076091
     2  C    0.161515  -0.279863  -0.251652  -0.064350   0.088987
     3  C    0.265918  -0.244532  -1.360995  -0.147589   0.021072
     4  C   -0.156716   0.461474   0.481012   0.544117  -0.081416
     5  C    0.134527   0.163147   0.110029  -0.044232   0.481305
     6  C   -1.143987   0.340068   0.137932  -0.030496  -0.125614
     7  Cl  17.481105  -0.229898  -0.021814  -0.018192   0.026682
     8  Cl  -0.229898  17.521016  -0.014268   0.006386  -0.009122
     9  Cl  -0.021814  -0.014268  17.484772   0.036551  -0.014091
    10  H   -0.018192   0.006386   0.036551   0.488350  -0.016338
    11  H    0.026682  -0.009122  -0.014091  -0.016338   0.475174
          Atomic-Atomic Spin Densities.
               1          2          3          4          5          6
     1  C    0.171703   0.038170   0.366685  -0.025150  -0.276391  -0.396532
     2  C    0.038170   0.625754   0.199157  -0.076165   0.264799  -0.185919
     3  C    0.366685   0.199157  -0.416897   0.016914  -0.207633   0.152019
     4  C   -0.025150  -0.076165   0.016914   0.195076  -0.064152   0.070292
     5  C   -0.276391   0.264799  -0.207633  -0.064152   0.313628  -0.073721
     6  C   -0.396532  -0.185919   0.152019   0.070292  -0.073721   0.480501
     7  Cl   0.136362  -0.002054   0.039939  -0.016012  -0.103049  -0.068194
     8  Cl  -0.081714  -0.063278  -0.056256   0.015108   0.068175   0.106507
     9  Cl   0.000611  -0.053295   0.013345   0.032158   0.001586   0.001346
    10  H    0.002297   0.023623   0.021031  -0.039979  -0.005287  -0.002351
    11  H   -0.007383   0.003760  -0.007058   0.001225   0.018719  -0.006862
               7          8          9         10         11
     1  C    0.136362  -0.081714   0.000611   0.002297  -0.007383
     2  C   -0.002054  -0.063278  -0.053295   0.023623   0.003760
     3  C    0.039939  -0.056256   0.013345   0.021031  -0.007058
     4  C   -0.016012   0.015108   0.032158  -0.039979   0.001225
     5  C   -0.103049   0.068175   0.001586  -0.005287   0.018719
     6  C   -0.068194   0.106507   0.001346  -0.002351  -0.006862
     7  Cl   0.064135  -0.032235  -0.000436  -0.000420  -0.003798
     8  Cl  -0.032235   0.054019   0.001818  -0.000009   0.000431
     9  Cl  -0.000436   0.001818   0.020131  -0.003484   0.000113
    10  H   -0.000420  -0.000009  -0.003484   0.015019   0.000069
    11  H   -0.003798   0.000431   0.000113   0.000069   0.002046
 Mulliken charges and spin densities:
               1          2
     1  C    0.001966  -0.071342
     2  C   -0.558075   0.774552
     3  C   -0.018977   0.121245
     4  C   -0.553343   0.109315
     5  C   -0.688079  -0.063324
     6  C    0.047544   0.077085
     7  Cl   0.439658   0.014239
     8  Cl   0.492489   0.012566
     9  Cl   0.389980   0.013893
    10  H    0.217385   0.010508
    11  H    0.229452   0.001264
 Sum of Mulliken charges =  -0.00000   1.00000
 Mulliken charges and spin densities with hydrogens summed into heavy atoms:
               1          2
     1  C    0.001966  -0.071342
     2  C   -0.558075   0.774552
     3  C   -0.018977   0.121245
     4  C   -0.335958   0.119823
     5  C   -0.458627  -0.062061
     6  C    0.047544   0.077085
     7  Cl   0.439658   0.014239
     8  Cl   0.492489   0.012566
     9  Cl   0.389980   0.013893
 Electronic spatial extent (au):  <R**2>=           2117.9449
 Charge=             -0.0000 electrons
 Dipole moment (field-independent basis, Debye):
    X=             -0.7562    Y=             -1.5587    Z=              0.0000  Tot=              1.7325
 Quadrupole moment (field-independent basis, Debye-Ang):
   XX=            -72.8055   YY=            -67.8394   ZZ=            -74.1905
   XY=              2.5789   XZ=              0.0000   YZ=              0.0000
 Traceless Quadrupole moment (field-independent basis, Debye-Ang):
   XX=             -1.1937   YY=              3.7724   ZZ=             -2.5787
   XY=              2.5789   XZ=              0.0000   YZ=              0.0000
 Octapole moment (field-independent basis, Debye-Ang**2):
  XXX=             -6.0722  YYY=             -0.6994  ZZZ=              0.0000  XYY=             -5.3338
  XXY=             -0.6461  XXZ=              0.0000  XZZ=              0.1185  YZZ=              4.7029
  YYZ=              0.0000  XYZ=              0.0000
 Hexadecapole moment (field-independent basis, Debye-Ang**3):
 XXXX=          -1369.5846 YYYY=          -1174.2183 ZZZZ=            -85.6617 XXXY=            280.1674
 XXXZ=              0.0000 YYYX=            304.7410 YYYZ=              0.0000 ZZZX=              0.0000
 ZZZY=              0.0000 XXYY=           -428.7421 XXZZ=           -256.4577 YYZZ=           -232.2240
 XXYZ=              0.0000 YYXZ=              0.0000 ZZXY=            100.3598
 N-N= 6.143412252097D+02 E-N=-5.043028683069D+03  KE= 1.606557437459D+03
 Symmetry A'   KE= 1.462235582634D+03
 Symmetry A"   KE= 1.443218548254D+02
 Symmetry A'   SP= 1.000000000000D+00
 Symmetry A"   SP= 8.727770737301D-15
                          Isotropic Fermi Contact Couplings
        Atom                 a.u.       MegaHertz       Gauss      10(-4) cm-1
     1  C(13)             -0.01482     -16.65608      -5.94331      -5.55587
     2  C(13)              0.43891     493.41684     176.06340     164.58614
     3  C(13)             -0.01463     -16.44988      -5.86972      -5.48709
     4  C(13)              0.03800      42.71736      15.24262      14.24898
     5  C(13)             -0.00554      -6.22903      -2.22267      -2.07778
     6  C(13)              0.04495      50.53161      18.03094      16.85553
     7  Cl(35)             0.00513       2.24974       0.80276       0.75043
     8  Cl(35)             0.01872       8.20776       2.92873       2.73781
     9  Cl(35)             0.01863       8.16683       2.91413       2.72416
    10  H(1)               0.00459      20.51937       7.32182       6.84453
    11  H(1)               0.00038       1.71025       0.61026       0.57048
 --------------------------------------------------------
       Center         ----  Spin Dipole Couplings  ----
                      3XX-RR        3YY-RR        3ZZ-RR
 --------------------------------------------------------
     1   Atom        0.080703      0.020885     -0.101588
     2   Atom        0.551782     -0.158527     -0.393255
     3   Atom       -0.018462      0.124523     -0.106061
     4   Atom        0.003417     -0.000112     -0.003306
     5   Atom        0.030973      0.021995     -0.052968
     6   Atom        0.008944     -0.011190      0.002246
     7   Atom        0.099681     -0.068655     -0.031025
     8   Atom       -0.027983      0.181144     -0.153161
     9   Atom        0.042975      0.093695     -0.136670
    10   Atom       -0.003871      0.008608     -0.004737
    11   Atom        0.001457      0.001112     -0.002569
 --------------------------------------------------------
                        XY            XZ            YZ
 --------------------------------------------------------
     1   Atom       -0.061717      0.000000      0.000000
     2   Atom        0.687362      0.000000      0.000000
     3   Atom       -0.003029      0.000000      0.000000
     4   Atom        0.036022      0.000000      0.000000
     5   Atom        0.006454      0.000000      0.000000
     6   Atom        0.024756      0.000000      0.000000
     7   Atom        0.018335      0.000000      0.000000
     8   Atom       -0.117328      0.000000      0.000000
     9   Atom       -0.127955      0.000000      0.000000
    10   Atom        0.002362      0.000000      0.000000
    11   Atom       -0.000052      0.000000      0.000000
 --------------------------------------------------------


 ---------------------------------------------------------------------------------
              Anisotropic Spin Dipole Couplings in Principal Axis System
 ---------------------------------------------------------------------------------

       Atom             a.u.   MegaHertz   Gauss  10(-4) cm-1        Axes

              Baa    -0.1016   -13.632    -4.864    -4.547  0.0000  0.0000  1.0000
     1 C(13)  Bbb    -0.0178    -2.387    -0.852    -0.796  0.5310  0.8474  0.0000
              Bcc     0.1194    16.019     5.716     5.343  0.8474 -0.5310 -0.0000
 
              Baa    -0.5771   -77.437   -27.631   -25.830 -0.5201  0.8541 -0.0000
     2 C(13)  Bbb    -0.3933   -52.771   -18.830   -17.603  0.0000  0.0000  1.0000
              Bcc     0.9703   130.208    46.461    43.433  0.8541  0.5201  0.0000
 
              Baa    -0.1061   -14.232    -5.078    -4.747  0.0000  0.0000  1.0000
     3 C(13)  Bbb    -0.0185    -2.486    -0.887    -0.829  0.9998  0.0212  0.0000
              Bcc     0.1246    16.718     5.966     5.577 -0.0212  0.9998  0.0000
 
              Baa    -0.0344    -4.618    -1.648    -1.540 -0.6896  0.7242 -0.0000
     4 C(13)  Bbb    -0.0033    -0.444    -0.158    -0.148  0.0000  0.0000  1.0000
              Bcc     0.0377     5.061     1.806     1.688  0.7242  0.6896  0.0000
 
              Baa    -0.0530    -7.108    -2.536    -2.371  0.0000  0.0000  1.0000
     5 C(13)  Bbb     0.0186     2.499     0.892     0.834 -0.4631  0.8863 -0.0000
              Bcc     0.0343     4.609     1.645     1.537  0.8863  0.4631  0.0000
 
              Baa    -0.0278    -3.737    -1.333    -1.246 -0.5583  0.8297  0.0000
     6 C(13)  Bbb     0.0022     0.301     0.108     0.101  0.0000  0.0000  1.0000
              Bcc     0.0256     3.435     1.226     1.146  0.8297  0.5583  0.0000
 
              Baa    -0.0706    -3.697    -1.319    -1.233 -0.1070  0.9943 -0.0000
     7 Cl(35) Bbb    -0.0310    -1.624    -0.579    -0.542  0.0000  0.0000  1.0000
              Bcc     0.1017     5.320     1.898     1.775  0.9943  0.1070  0.0000
 
              Baa    -0.1532    -8.016    -2.860    -2.674  0.0000  0.0000  1.0000
     8 Cl(35) Bbb    -0.0806    -4.217    -1.505    -1.407  0.9125  0.4091  0.0000
              Bcc     0.2337    12.233     4.365     4.081 -0.4091  0.9125  0.0000
 
              Baa    -0.1367    -7.153    -2.552    -2.386  0.0000  0.0000  1.0000
     9 Cl(35) Bbb    -0.0621    -3.251    -1.160    -1.084  0.7728  0.6347  0.0000
              Bcc     0.1988    10.404     3.712     3.470 -0.6347  0.7728  0.0000
 
              Baa    -0.0047    -2.528    -0.902    -0.843  0.0000  0.0000  1.0000
    10 H(1)   Bbb    -0.0043    -2.296    -0.819    -0.766  0.9837 -0.1799 -0.0000
              Bcc     0.0090     4.823     1.721     1.609  0.1799  0.9837  0.0000
 
              Baa    -0.0026    -1.371    -0.489    -0.457  0.0000  0.0000  1.0000
    11 H(1)   Bbb     0.0011     0.589     0.210     0.197  0.1456  0.9893  0.0000
              Bcc     0.0015     0.782     0.279     0.261  0.9893 -0.1456 -0.0000
 

 ---------------------------------------------------------------------------------

 Calling FoFJK, ICntrl=      2127 FMM=F ISym2X=1 I1Cent= 0 IOpClX= 1 NMat=1 NMatS=1 NMatT=0.
 ***** Axes restored to original set *****
 -------------------------------------------------------------------
 Center     Atomic                   Forces (Hartrees/Bohr)
 Number     Number              X              Y              Z
 -------------------------------------------------------------------
      1        6           0.032270059   -0.028202450   -0.000000000
      2        6           0.001153187    0.006610466   -0.000000000
      3        6          -0.031890213   -0.030894065   -0.000000000
      4        6          -0.000314410    0.002941506   -0.000000000
      5        6           0.001101857   -0.001032336   -0.000000000
      6        6           0.026413924    0.016693696   -0.000000000
      7       17          -0.018694322   -0.011860271   -0.000000000
      8       17          -0.020419634    0.012601359   -0.000000000
      9       17           0.021484775    0.014521030   -0.000000000
     10        1          -0.009076503    0.005801705   -0.000000000
     11        1          -0.002028719    0.012819361   -0.000000000
 -------------------------------------------------------------------
 Cartesian Forces:  Max     0.032270059 RMS     0.014421625

 GradGradGradGradGradGradGradGradGradGradGradGradGradGradGradGradGradGrad
 Berny optimization.
 FormGI is forming the generalized inverse of G from B-inverse, IUseBI=4.
 Internal  Forces:  Max     0.025928436 RMS     0.007877334
 Search for a local minimum.
 Step number   1 out of a maximum of   57
 All quantities printed in internal units (Hartrees-Bohrs-Radians)
 Mixed Optimization -- RFO/linear search
 Second derivative matrix not updated -- first step.
 ITU=  0
     Eigenvalues ---    0.01891   0.01936   0.01980   0.02007   0.02033
     Eigenvalues ---    0.02041   0.02101   0.02344   0.16000   0.16000
     Eigenvalues ---    0.22466   0.24489   0.25000   0.25000   0.25000
     Eigenvalues ---    0.25000   0.33512   0.33748   0.37416   0.38251
     Eigenvalues ---    0.38557   0.40227   0.42289   0.42932   0.44869
     Eigenvalues ---    0.48554   0.49701
 RFO step:  Lambda=-7.58111966D-03 EMin= 1.89051438D-02
 Linear search not attempted -- first point.
 Iteration  1 RMS(Cart)=  0.01771506 RMS(Int)=  0.00011347
 Iteration  2 RMS(Cart)=  0.00011961 RMS(Int)=  0.00002326
 Iteration  3 RMS(Cart)=  0.00000001 RMS(Int)=  0.00002326
 ClnCor:  largest displacement from symmetrization is 5.13D-09 for atom    11.
 Variable       Old X    -DE/DX   Delta X   Delta X   Delta X     New X
                                 (Linear)    (Quad)   (Total)
    R1        2.59843  -0.00561   0.00000  -0.01060  -0.01057   2.58786
    R2        2.68349  -0.01199   0.00000  -0.02760  -0.02760   2.65589
    R3        3.17263   0.02399   0.00000   0.06103   0.06103   3.23366
    R4        2.59718  -0.00731   0.00000  -0.01404  -0.01401   2.58317
    R5        2.67282  -0.01347   0.00000  -0.03073  -0.03073   2.64209
    R6        3.17701   0.02593   0.00000   0.06647   0.06647   3.24348
    R7        2.64398  -0.01144   0.00000  -0.02505  -0.02508   2.61889
    R8        2.07758  -0.01075   0.00000  -0.03116  -0.03116   2.04642
    R9        2.66210  -0.01336   0.00000  -0.03006  -0.03010   2.63201
   R10        2.08162  -0.01287   0.00000  -0.03755  -0.03755   2.04406
   R11        3.18924   0.02214   0.00000   0.05799   0.05799   3.24724
    A1        2.00399   0.00548   0.00000   0.02233   0.02235   2.02635
    A2        2.12822  -0.00304   0.00000  -0.01232  -0.01233   2.11589
    A3        2.15097  -0.00244   0.00000  -0.01001  -0.01002   2.14095
    A4        2.24991  -0.00970   0.00000  -0.03575  -0.03567   2.21425
    A5        2.01093   0.00427   0.00000   0.01684   0.01687   2.02780
    A6        2.13999  -0.00280   0.00000  -0.01100  -0.01102   2.12897
    A7        2.13226  -0.00147   0.00000  -0.00584  -0.00585   2.12641
    A8        2.08780   0.00107   0.00000   0.00330   0.00327   2.09107
    A9        2.09677  -0.00120   0.00000  -0.00559  -0.00557   2.09120
   A10        2.09862   0.00013   0.00000   0.00229   0.00231   2.10092
   A11        2.12756  -0.00037   0.00000  -0.00340  -0.00347   2.12409
   A12        2.07725   0.00194   0.00000   0.01215   0.01219   2.08944
   A13        2.07838  -0.00157   0.00000  -0.00876  -0.00872   2.06966
   A14        2.08618  -0.00074   0.00000  -0.00332  -0.00336   2.08282
   A15        2.10839   0.00011   0.00000   0.00065   0.00068   2.10906
   A16        2.08862   0.00063   0.00000   0.00267   0.00269   2.09130
    D1        0.00000  -0.00000   0.00000  -0.00000   0.00000   0.00000
    D2        3.14159  -0.00000   0.00000  -0.00000   0.00000   3.14159
    D3        0.00000   0.00000   0.00000   0.00000   0.00000   0.00000
    D4        3.14159   0.00000   0.00000   0.00000   0.00000   3.14159
    D5        3.14159   0.00000   0.00000   0.00000   0.00000   3.14159
    D6        0.00000   0.00000   0.00000   0.00000   0.00000   0.00000
    D7        0.00000  -0.00000   0.00000  -0.00000   0.00000   0.00000
    D8        3.14159  -0.00000   0.00000  -0.00000   0.00000   3.14159
    D9        0.00000   0.00000   0.00000   0.00000   0.00000   0.00000
   D10        3.14159   0.00000   0.00000   0.00000   0.00000   3.14159
   D11        3.14159   0.00000   0.00000   0.00000   0.00000   3.14159
   D12        0.00000   0.00000   0.00000   0.00000   0.00000   0.00000
   D13        0.00000  -0.00000   0.00000  -0.00000   0.00000   0.00000
   D14        3.14159  -0.00000   0.00000   0.00000   0.00000   3.14159
   D15        3.14159  -0.00000   0.00000  -0.00000   0.00000   3.14159
   D16        0.00000  -0.00000   0.00000  -0.00000   0.00000   0.00000
   D17        0.00000  -0.00000   0.00000  -0.00000   0.00000   0.00000
   D18        3.14159  -0.00000   0.00000   0.00000   0.00000   3.14159
   D19        3.14159   0.00000   0.00000  -0.00000   0.00000   3.14159
   D20        0.00000  -0.00000   0.00000  -0.00000   0.00000   0.00000
         Item               Value     Threshold  Converged?
 Maximum Force            0.025928     0.000450     NO 
 RMS     Force            0.007877     0.000300     NO 
 Maximum Displacement     0.048085     0.001800     NO 
 RMS     Displacement     0.017724     0.001200     NO 
 Predicted change in Energy=-3.866997D-03
 GradGradGradGradGradGradGradGradGradGradGradGradGradGradGradGradGradGrad

                          Input orientation:                          
 ---------------------------------------------------------------------
 Center     Atomic      Atomic             Coordinates (Angstroms)
 Number     Number       Type             X           Y           Z
 ---------------------------------------------------------------------
      1          6           0       -3.163546    0.110630    0.000000
      2          6           0       -1.953196    0.751264    0.000000
      3          6           0       -0.716753    0.168363    0.000000
      4          6           0       -0.693725   -1.229582    0.000000
      5          6           0       -1.884704   -1.938224    0.000000
      6          6           0       -3.119618   -1.294120    0.000000
      7         17           0       -4.566748   -2.220721    0.000000
      8         17           0       -4.632210    0.988783    0.000000
      9         17           0        0.726329    1.097584    0.000000
     10          1           0        0.254578   -1.752489    0.000000
     11          1           0       -1.865127   -3.019719    0.000000
 ---------------------------------------------------------------------
                    Distance matrix (angstroms):
                    1          2          3          4          5
     1  C    0.000000
     2  C    1.369437   0.000000
     3  C    2.447474   1.366955   0.000000
     4  C    2.810015   2.347344   1.398134   0.000000
     5  C    2.415211   2.690361   2.408696   1.385859   0.000000
     6  C    1.405436   2.354599   2.812937   2.426752   1.392798
     7  Cl   2.721061   3.957695   4.531024   3.997833   2.696881
     8  Cl   1.711177   2.689522   4.000486   4.520267   4.014494
     9  Cl   4.013129   2.701813   1.716374   2.726216   4.004201
    10  H    3.892914   3.338121   2.152477   1.082917   2.147329
    11  H    3.388949   3.772011   3.388602   2.139339   1.081671
                    6          7          8          9         10
     6  C    0.000000
     7  Cl   1.718364   0.000000
     8  Cl   2.738536   3.210172   0.000000
     9  Cl   4.528969   6.247224   5.359643   0.000000
    10  H    3.405188   4.844009   5.603148   2.888852   0.000000
    11  H    2.133411   2.817295   4.870815   4.864959   2.469619
                   11
    11  H    0.000000
 Stoichiometry    C6H2Cl3(2)
 Framework group  CS[SG(C6H2Cl3)]
 Deg. of freedom    19
 Full point group                 CS      NOp   2
 Largest Abelian subgroup         CS      NOp   2
 Largest concise Abelian subgroup C1      NOp   1
                         Standard orientation:                         
 ---------------------------------------------------------------------
 Center     Atomic      Atomic             Coordinates (Angstroms)
 Number     Number       Type             X           Y           Z
 ---------------------------------------------------------------------
      1          6           0        0.000000    0.859927    0.000000
      2          6           0        1.151425    0.118592    0.000000
      3          6           0        1.248968   -1.244879    0.000000
      4          6           0        0.041536   -1.949781    0.000000
      5          6           0       -1.159689   -1.258649    0.000000
      6          6           0       -1.203127    0.133471    0.000000
      7         17           0       -2.719849    0.941139    0.000000
      8         17           0        0.046094    2.570483    0.000000
      9         17           0        2.765992   -2.047734    0.000000
     10          1           0        0.050226   -3.032663    0.000000
     11          1           0       -2.092934   -1.805519    0.000000
 ---------------------------------------------------------------------
 Rotational constants (GHZ):           1.8669349           0.6004799           0.4543447
 Standard basis: 6-311++G(d,p) (5D, 7F)
 There are   183 symmetry adapted cartesian basis functions of A'  symmetry.
 There are    62 symmetry adapted cartesian basis functions of A"  symmetry.
 There are   174 symmetry adapted basis functions of A'  symmetry.
 There are    62 symmetry adapted basis functions of A"  symmetry.
   236 basis functions,   393 primitive gaussians,   245 cartesian basis functions
    45 alpha electrons       44 beta electrons
       nuclear repulsion energy       612.8507830273 Hartrees.
 NAtoms=   11 NActive=   11 NUniq=   11 SFac= 1.00D+00 NAtFMM=   60 NAOKFM=F Big=F
 Integral buffers will be    131072 words long.
 Raffenetti 2 integral format.
 Two-electron integral symmetry is turned on.
 One-electron integrals computed using PRISM.
 NBasis=   236 RedAO= T EigKep=  2.01D-06  NBF=   174    62
 NBsUse=   235 1.00D-06 EigRej=  9.21D-07 NBFU=   173    62
 Initial guess from the checkpoint file:  "frequency_chks/1234-12_4-ClBzNeutralRadical_Freq.chk"
 B after Tr=     0.000000   -0.000000    0.000000
         Rot=    1.000000   -0.000000   -0.000000   -0.000628 Ang=  -0.07 deg.
 Initial guess orbital symmetries:
 Alpha Orbitals:
       Occupied  (A') (A') (A') (A') (A') (A') (A') (A') (A') (A')
                 (A') (A') (A') (A') (A') (A") (A') (A") (A') (A")
                 (A') (A') (A') (A') (A') (A') (A') (A') (A') (A')
                 (A') (A') (A') (A") (A') (A') (A") (A") (A') (A')
                 (A') (A") (A') (A") (A")
       Virtual   (A") (A") (A') (A') (A') (A') (A') (A') (A") (A')
                 (A") (A') (A') (A") (A') (A') (A") (A") (A') (A')
                 (A') (A") (A') (A') (A") (A') (A") (A') (A') (A")
                 (A') (A') (A') (A") (A') (A') (A') (A') (A') (A')
                 (A') (A') (A') (A') (A') (A') (A') (A') (A') (A')
                 (A') (A") (A') (A") (A') (A') (A') (A") (A') (A")
                 (A') (A') (A') (A") (A') (A") (A") (A") (A') (A')
                 (A') (A") (A') (A') (A') (A') (A") (A') (A') (A")
                 (A') (A') (A') (A") (A') (A") (A") (A') (A') (A')
                 (A") (A') (A') (A') (A') (A") (A') (A") (A') (A')
                 (A') (A") (A') (A') (A') (A") (A') (A") (A') (A")
                 (A') (A') (A') (A') (A") (A') (A") (A') (A') (A')
                 (A') (A") (A") (A") (A') (A") (A') (A') (A') (A")
                 (A') (A') (A") (A") (A') (A") (A") (A') (A') (A')
                 (A') (A') (A') (A') (A') (A') (A') (A") (A') (A')
                 (A') (A") (A") (A") (A") (A') (A") (A') (A') (A')
                 (A') (A') (A') (A') (A') (A') (A') (A') (A') (A')
                 (A') (A') (A') (A') (A') (A') (A') (A') (A") (A")
                 (A") (A') (A') (A') (A') (A') (A') (A') (A') (A')
 Beta  Orbitals:
       Occupied  (A') (A') (A') (A') (A') (A') (A') (A') (A') (A')
                 (A') (A') (A') (A') (A') (A") (A') (A") (A') (A")
                 (A') (A') (A') (A') (A') (A') (A') (A') (A') (A')
                 (A') (A') (A') (A") (A') (A') (A") (A") (A') (A')
                 (A") (A') (A") (A")
       Virtual   (A') (A") (A") (A') (A') (A') (A') (A') (A') (A")
                 (A') (A") (A') (A") (A') (A') (A') (A") (A') (A")
                 (A') (A') (A") (A') (A') (A") (A') (A') (A") (A')
                 (A") (A') (A') (A') (A") (A') (A') (A') (A') (A')
                 (A') (A') (A') (A') (A') (A') (A') (A') (A') (A')
                 (A') (A') (A') (A") (A") (A') (A') (A") (A') (A')
                 (A') (A") (A') (A') (A") (A') (A") (A") (A") (A')
                 (A') (A") (A') (A') (A') (A') (A') (A") (A') (A')
                 (A") (A') (A') (A') (A") (A') (A") (A") (A') (A')
                 (A') (A") (A') (A') (A') (A') (A") (A') (A") (A')
                 (A') (A') (A') (A") (A') (A') (A") (A') (A') (A")
                 (A") (A') (A') (A') (A") (A') (A') (A") (A') (A')
                 (A') (A') (A") (A") (A") (A') (A") (A') (A') (A')
                 (A") (A') (A') (A") (A") (A') (A") (A") (A') (A')
                 (A') (A') (A') (A') (A') (A') (A') (A') (A") (A')
                 (A') (A') (A") (A") (A") (A") (A') (A") (A') (A')
                 (A') (A') (A') (A') (A') (A') (A') (A') (A') (A')
                 (A') (A') (A') (A') (A') (A') (A') (A') (A') (A")
                 (A") (A") (A') (A') (A') (A') (A') (A') (A') (A')
                 (A')
 Initial guess <Sx>= 0.0000 <Sy>= 0.0000 <Sz>= 0.5000 <S**2>= 0.7632 S= 0.5066
 ExpMin= 3.60D-02 ExpMax= 1.06D+05 ExpMxC= 3.62D+03 IAcc=3 IRadAn=         5 AccDes= 0.00D+00
 Harris functional with IExCor= 1009 and IRadAn=       5 diagonalized for initial guess.
 HarFok:  IExCor= 1009 AccDes= 0.00D+00 IRadAn=         5 IDoV= 1 UseB2=F ITyADJ=14
 ICtDFT=  3500011 ScaDFX=  1.000000  1.000000  1.000000  1.000000
 FoFCou: FMM=F IPFlag=           0 FMFlag=      100000 FMFlg1=           0
         NFxFlg=           0 DoJE=T BraDBF=F KetDBF=T FulRan=T
         wScrn=  0.000000 ICntrl=       500 IOpCl=  0 I1Cent=   200000004 NGrid=           0
         NMat0=    1 NMatS0=      1 NMatT0=    0 NMatD0=    1 NMtDS0=    0 NMtDT0=    0
 Petite list used in FoFCou.
 Keep R1 and R2 ints in memory in symmetry-blocked form, NReq=617299900.
 Requested convergence on RMS density matrix=1.00D-08 within 128 cycles.
 Requested convergence on MAX density matrix=1.00D-06.
 Requested convergence on             energy=1.00D-06.
 No special actions if energy rises.
 SCF Done:  E(UM062X) =  -1610.30398055     A.U. after   16 cycles
            NFock= 16  Conv=0.95D-08     -V/T= 2.0023
 <Sx>= 0.0000 <Sy>= 0.0000 <Sz>= 0.5000 <S**2>= 0.7629 S= 0.5064
 <L.S>=  0.00000000000    
 Annihilation of the first spin contaminant:
 S**2 before annihilation     0.7629,   after     0.7501
 Calling FoFJK, ICntrl=      2127 FMM=F ISym2X=1 I1Cent= 0 IOpClX= 1 NMat=1 NMatS=1 NMatT=0.
 ***** Axes restored to original set *****
 -------------------------------------------------------------------
 Center     Atomic                   Forces (Hartrees/Bohr)
 Number     Number              X              Y              Z
 -------------------------------------------------------------------
      1        6           0.008570651   -0.009794798   -0.000000000
      2        6          -0.000613467    0.006501830   -0.000000000
      3        6          -0.010051213   -0.009671515   -0.000000000
      4        6           0.003363677    0.002767794   -0.000000000
      5        6          -0.001554168   -0.002148535   -0.000000000
      6        6           0.004421980    0.007129392   -0.000000000
      7       17          -0.004293122   -0.003077208   -0.000000000
      8       17          -0.006050158    0.004455210   -0.000000000
      9       17           0.006099314    0.004164280   -0.000000000
     10        1           0.000297242    0.000080171   -0.000000000
     11        1          -0.000190737   -0.000406621   -0.000000000
 -------------------------------------------------------------------
 Cartesian Forces:  Max     0.010051213 RMS     0.004411387

 GradGradGradGradGradGradGradGradGradGradGradGradGradGradGradGradGradGrad
 Berny optimization.
 Using GEDIIS/GDIIS optimizer.
 FormGI is forming the generalized inverse of G from B-inverse, IUseBI=4.
 Internal  Forces:  Max     0.007478877 RMS     0.002108625
 Search for a local minimum.
 Step number   2 out of a maximum of   57
 All quantities printed in internal units (Hartrees-Bohrs-Radians)
 Mixed Optimization -- RFO/linear search
 Update second derivatives using D2CorX and points    1    2
 DE= -4.59D-03 DEPred=-3.87D-03 R= 1.19D+00
 TightC=F SS=  1.41D+00  RLast= 1.42D-01 DXNew= 5.0454D-01 4.2642D-01
 Trust test= 1.19D+00 RLast= 1.42D-01 DXMaxT set to 4.26D-01
 ITU=  1  0
 Use linear search instead of GDIIS.
     Eigenvalues ---    0.01891   0.01935   0.01980   0.02007   0.02033
     Eigenvalues ---    0.02042   0.02101   0.02339   0.15975   0.16004
     Eigenvalues ---    0.21027   0.22514   0.24771   0.25000   0.25000
     Eigenvalues ---    0.25070   0.32404   0.33646   0.34802   0.37694
     Eigenvalues ---    0.38429   0.40155   0.42597   0.43783   0.44987
     Eigenvalues ---    0.49567   0.50197
 RFO step:  Lambda=-4.33197999D-04 EMin= 1.89063038D-02
 Quartic linear search produced a step of  0.28615.
 Iteration  1 RMS(Cart)=  0.00648246 RMS(Int)=  0.00004679
 Iteration  2 RMS(Cart)=  0.00006018 RMS(Int)=  0.00001861
 Iteration  3 RMS(Cart)=  0.00000000 RMS(Int)=  0.00001861
 ClnCor:  largest displacement from symmetrization is 3.77D-10 for atom    11.
 Variable       Old X    -DE/DX   Delta X   Delta X   Delta X     New X
                                 (Linear)    (Quad)   (Total)
    R1        2.58786  -0.00049  -0.00302   0.00089  -0.00211   2.58575
    R2        2.65589  -0.00254  -0.00790  -0.00157  -0.00947   2.64642
    R3        3.23366   0.00748   0.01746   0.01098   0.02844   3.26210
    R4        2.58317   0.00028  -0.00401   0.00381  -0.00017   2.58300
    R5        2.64209  -0.00178  -0.00879   0.00194  -0.00685   2.63525
    R6        3.24348   0.00738   0.01902   0.00961   0.02863   3.27211
    R7        2.61889   0.00150  -0.00718   0.01025   0.00305   2.62195
    R8        2.04642   0.00022  -0.00892   0.00796  -0.00096   2.04546
    R9        2.63201   0.00017  -0.00861   0.00750  -0.00114   2.63086
   R10        2.04406   0.00040  -0.01075   0.01012  -0.00063   2.04343
   R11        3.24724   0.00527   0.01659   0.00486   0.02146   3.26869
    A1        2.02635   0.00228   0.00640   0.00601   0.01243   2.03877
    A2        2.11589  -0.00231  -0.00353  -0.00875  -0.01229   2.10360
    A3        2.14095   0.00003  -0.00287   0.00274  -0.00014   2.14081
    A4        2.21425  -0.00430  -0.01021  -0.01466  -0.02480   2.18945
    A5        2.02780   0.00372   0.00483   0.01568   0.02054   2.04834
    A6        2.12897  -0.00217  -0.00315  -0.00887  -0.01204   2.11693
    A7        2.12641  -0.00154  -0.00168  -0.00681  -0.00850   2.11791
    A8        2.09107  -0.00113   0.00093  -0.00593  -0.00502   2.08605
    A9        2.09120   0.00035  -0.00159   0.00213   0.00055   2.09175
   A10        2.10092   0.00078   0.00066   0.00380   0.00447   2.10539
   A11        2.12409  -0.00165  -0.00099  -0.00759  -0.00863   2.11546
   A12        2.08944   0.00103   0.00349   0.00308   0.00659   2.09603
   A13        2.06966   0.00062  -0.00250   0.00451   0.00204   2.07170
   A14        2.08282   0.00108  -0.00096   0.00648   0.00549   2.08830
   A15        2.10906  -0.00010   0.00019  -0.00074  -0.00053   2.10853
   A16        2.09130  -0.00098   0.00077  -0.00574  -0.00495   2.08635
    D1        0.00000  -0.00000   0.00000  -0.00000   0.00000   0.00000
    D2        3.14159  -0.00000   0.00000  -0.00000   0.00000   3.14159
    D3        0.00000   0.00000   0.00000   0.00000   0.00000   0.00000
    D4        3.14159   0.00000   0.00000   0.00000   0.00000   3.14159
    D5        3.14159   0.00000   0.00000   0.00000   0.00000   3.14159
    D6        0.00000   0.00000   0.00000   0.00000   0.00000   0.00000
    D7        0.00000  -0.00000   0.00000  -0.00000   0.00000   0.00000
    D8        3.14159  -0.00000   0.00000  -0.00000   0.00000   3.14159
    D9        0.00000   0.00000   0.00000   0.00000   0.00000   0.00000
   D10        3.14159   0.00000   0.00000   0.00000   0.00000   3.14159
   D11        3.14159   0.00000   0.00000   0.00000   0.00000   3.14159
   D12        0.00000   0.00000   0.00000   0.00000   0.00000   0.00000
   D13        0.00000  -0.00000   0.00000  -0.00000   0.00000   0.00000
   D14        3.14159  -0.00000   0.00000  -0.00000   0.00000   3.14159
   D15        3.14159   0.00000   0.00000  -0.00000   0.00000   3.14159
   D16        0.00000   0.00000   0.00000  -0.00000   0.00000   0.00000
   D17        0.00000  -0.00000   0.00000  -0.00000   0.00000   0.00000
   D18        3.14159  -0.00000   0.00000  -0.00000   0.00000   3.14159
   D19        3.14159  -0.00000   0.00000  -0.00000   0.00000   3.14159
   D20        0.00000  -0.00000   0.00000  -0.00000   0.00000   0.00000
         Item               Value     Threshold  Converged?
 Maximum Force            0.007479     0.000450     NO 
 RMS     Force            0.002109     0.000300     NO 
 Maximum Displacement     0.019771     0.001800     NO 
 RMS     Displacement     0.006479     0.001200     NO 
 Predicted change in Energy=-4.408877D-04
 GradGradGradGradGradGradGradGradGradGradGradGradGradGradGradGradGradGrad

                          Input orientation:                          
 ---------------------------------------------------------------------
 Center     Atomic      Atomic             Coordinates (Angstroms)
 Number     Number       Type             X           Y           Z
 ---------------------------------------------------------------------
      1          6           0       -3.156487    0.107459    0.000000
      2          6           0       -1.954722    0.761727    0.000000
      3          6           0       -0.726076    0.162772    0.000000
      4          6           0       -0.692677   -1.231340    0.000000
      5          6           0       -1.883293   -1.943742    0.000000
      6          6           0       -3.113674   -1.292311    0.000000
      7         17           0       -4.571500   -2.223262    0.000000
      8         17           0       -4.637583    0.994146    0.000000
      9         17           0        0.730697    1.098714    0.000000
     10          1           0        0.258781   -1.747419    0.000000
     11          1           0       -1.868186   -3.024974    0.000000
 ---------------------------------------------------------------------
                    Distance matrix (angstroms):
                    1          2          3          4          5
     1  C    0.000000
     2  C    1.368322   0.000000
     3  C    2.431040   1.366864   0.000000
     4  C    2.804058   2.359041   1.394512   0.000000
     5  C    2.414218   2.706411   2.403445   1.387474   0.000000
     6  C    1.400425   2.358440   2.796049   2.421765   1.392192
     7  Cl   2.726632   3.969595   4.525533   4.003646   2.702701
     8  Cl   1.726227   2.692909   3.998883   4.529357   4.027070
     9  Cl   4.011581   2.706480   1.731524   2.730411   4.011169
    10  H    3.886467   3.345954   2.149133   1.082409   2.151051
    11  H    3.387013   3.787689   3.386169   2.144515   1.081338
                    6          7          8          9         10
     6  C    0.000000
     7  Cl   1.729719   0.000000
     8  Cl   2.747760   3.218086   0.000000
     9  Cl   4.527272   6.256902   5.369298   0.000000
    10  H    3.403024   4.853663   5.611645   2.884992   0.000000
    11  H    2.133861   2.819690   4.880869   4.874320   2.481156
                   11
    11  H    0.000000
 Stoichiometry    C6H2Cl3(2)
 Framework group  CS[SG(C6H2Cl3)]
 Deg. of freedom    19
 Full point group                 CS      NOp   2
 Largest Abelian subgroup         CS      NOp   2
 Largest concise Abelian subgroup C1      NOp   1
                         Standard orientation:                         
 ---------------------------------------------------------------------
 Center     Atomic      Atomic             Coordinates (Angstroms)
 Number     Number       Type             X           Y           Z
 ---------------------------------------------------------------------
      1          6           0        0.000000    0.851299    0.000000
      2          6           0        1.159651    0.124997    0.000000
      3          6           0        1.240403   -1.239480    0.000000
      4          6           0        0.041927   -1.952446    0.000000
      5          6           0       -1.162914   -1.264375    0.000000
      6          6           0       -1.198789    0.127354    0.000000
      7         17           0       -2.725154    0.941072    0.000000
      8         17           0        0.046148    2.576909    0.000000
      9         17           0        2.770601   -2.049831    0.000000
     10          1           0        0.058928   -3.034721    0.000000
     11          1           0       -2.097713   -1.807923    0.000000
 ---------------------------------------------------------------------
 Rotational constants (GHZ):           1.8570545           0.5991600           0.4530031
 Standard basis: 6-311++G(d,p) (5D, 7F)
 There are   183 symmetry adapted cartesian basis functions of A'  symmetry.
 There are    62 symmetry adapted cartesian basis functions of A"  symmetry.
 There are   174 symmetry adapted basis functions of A'  symmetry.
 There are    62 symmetry adapted basis functions of A"  symmetry.
   236 basis functions,   393 primitive gaussians,   245 cartesian basis functions
    45 alpha electrons       44 beta electrons
       nuclear repulsion energy       611.6457220721 Hartrees.
 NAtoms=   11 NActive=   11 NUniq=   11 SFac= 1.00D+00 NAtFMM=   60 NAOKFM=F Big=F
 Integral buffers will be    131072 words long.
 Raffenetti 2 integral format.
 Two-electron integral symmetry is turned on.
 One-electron integrals computed using PRISM.
 NBasis=   236 RedAO= T EigKep=  2.01D-06  NBF=   174    62
 NBsUse=   235 1.00D-06 EigRej=  9.48D-07 NBFU=   173    62
 Initial guess from the checkpoint file:  "frequency_chks/1234-12_4-ClBzNeutralRadical_Freq.chk"
 B after Tr=     0.000000   -0.000000    0.000000
         Rot=    1.000000   -0.000000    0.000000   -0.000226 Ang=  -0.03 deg.
 Initial guess orbital symmetries:
 Alpha Orbitals:
       Occupied  (A') (A') (A') (A') (A') (A') (A') (A') (A') (A')
                 (A') (A') (A') (A') (A') (A") (A') (A') (A") (A")
                 (A') (A') (A') (A') (A') (A') (A') (A') (A') (A')
                 (A') (A') (A') (A") (A') (A') (A") (A") (A') (A')
                 (A") (A') (A') (A") (A")
       Virtual   (A") (A") (A') (A') (A') (A') (A') (A') (A") (A')
                 (A') (A") (A') (A") (A') (A') (A") (A') (A") (A')
                 (A') (A') (A") (A') (A') (A") (A') (A") (A') (A')
                 (A") (A') (A') (A") (A') (A') (A') (A') (A') (A')
                 (A') (A') (A') (A') (A') (A') (A') (A') (A') (A')
                 (A') (A') (A") (A") (A') (A') (A') (A") (A') (A")
                 (A') (A') (A') (A") (A') (A") (A") (A") (A') (A')
                 (A") (A') (A') (A') (A') (A') (A") (A') (A') (A")
                 (A') (A') (A') (A') (A") (A") (A") (A') (A') (A')
                 (A") (A') (A') (A') (A') (A") (A') (A") (A') (A')
                 (A') (A") (A') (A') (A') (A") (A') (A") (A") (A')
                 (A') (A') (A') (A') (A") (A') (A") (A') (A') (A')
                 (A') (A") (A") (A") (A') (A") (A') (A') (A') (A")
                 (A') (A') (A") (A') (A") (A") (A") (A') (A') (A')
                 (A') (A') (A') (A') (A') (A') (A") (A') (A') (A')
                 (A') (A") (A") (A") (A") (A') (A") (A') (A') (A')
                 (A') (A') (A') (A') (A') (A') (A') (A') (A') (A')
                 (A') (A') (A') (A') (A') (A') (A') (A') (A") (A")
                 (A") (A') (A') (A') (A') (A') (A') (A') (A') (A')
 Beta  Orbitals:
       Occupied  (A') (A') (A') (A') (A') (A') (A') (A') (A') (A')
                 (A') (A') (A') (A') (A') (A") (A') (A") (A') (A")
                 (A') (A') (A') (A') (A') (A') (A') (A') (A') (A')
                 (A') (A') (A') (A") (A') (A') (A") (A") (A') (A')
                 (A") (A') (A") (A")
       Virtual   (A') (A") (A") (A') (A') (A') (A') (A') (A') (A")
                 (A') (A") (A') (A") (A') (A') (A') (A") (A') (A")
                 (A') (A') (A") (A') (A') (A") (A') (A') (A') (A")
                 (A') (A") (A') (A') (A") (A') (A') (A') (A') (A')
                 (A') (A') (A') (A') (A') (A') (A') (A') (A') (A')
                 (A') (A') (A') (A") (A") (A') (A') (A') (A") (A')
                 (A') (A") (A') (A') (A") (A') (A") (A") (A") (A')
                 (A') (A") (A') (A') (A') (A') (A') (A") (A') (A')
                 (A') (A") (A') (A') (A') (A") (A") (A") (A') (A')
                 (A') (A") (A') (A') (A') (A') (A") (A') (A") (A')
                 (A') (A') (A') (A") (A') (A') (A") (A') (A") (A')
                 (A") (A') (A') (A') (A') (A") (A') (A") (A') (A')
                 (A') (A') (A") (A") (A") (A') (A") (A') (A') (A')
                 (A") (A') (A') (A") (A') (A") (A") (A") (A') (A')
                 (A') (A') (A') (A') (A') (A') (A') (A") (A') (A')
                 (A') (A') (A") (A") (A") (A") (A') (A") (A') (A')
                 (A') (A') (A') (A') (A') (A') (A') (A') (A') (A')
                 (A') (A') (A') (A') (A') (A') (A') (A') (A') (A")
                 (A") (A") (A') (A') (A') (A') (A') (A') (A') (A')
                 (A')
 Initial guess <Sx>= 0.0000 <Sy>= 0.0000 <Sz>= 0.5000 <S**2>= 0.7629 S= 0.5064
 Keep R1 and R2 ints in memory in symmetry-blocked form, NReq=617299900.
 Requested convergence on RMS density matrix=1.00D-08 within 128 cycles.
 Requested convergence on MAX density matrix=1.00D-06.
 Requested convergence on             energy=1.00D-06.
 No special actions if energy rises.
 SCF Done:  E(UM062X) =  -1610.30448293     A.U. after   15 cycles
            NFock= 15  Conv=0.70D-08     -V/T= 2.0023
 <Sx>= 0.0000 <Sy>= 0.0000 <Sz>= 0.5000 <S**2>= 0.7630 S= 0.5065
 <L.S>=  0.00000000000    
 Annihilation of the first spin contaminant:
 S**2 before annihilation     0.7630,   after     0.7501
 Calling FoFJK, ICntrl=      2127 FMM=F ISym2X=1 I1Cent= 0 IOpClX= 1 NMat=1 NMatS=1 NMatT=0.
 ***** Axes restored to original set *****
 -------------------------------------------------------------------
 Center     Atomic                   Forces (Hartrees/Bohr)
 Number     Number              X              Y              Z
 -------------------------------------------------------------------
      1        6          -0.000016870   -0.001742537   -0.000000000
      2        6           0.000474786    0.001723696   -0.000000000
      3        6          -0.001456946   -0.001730630   -0.000000000
      4        6           0.001110168    0.000656257   -0.000000000
      5        6          -0.000599427   -0.000386245   -0.000000000
      6        6          -0.000398711    0.001014495   -0.000000000
      7       17           0.000080290   -0.000036877   -0.000000000
      8       17          -0.000444416    0.000422055   -0.000000000
      9       17           0.000842144    0.000670263   -0.000000000
     10        1           0.000383180   -0.000090019   -0.000000000
     11        1           0.000025802   -0.000500458   -0.000000000
 -------------------------------------------------------------------
 Cartesian Forces:  Max     0.001742537 RMS     0.000710502

 GradGradGradGradGradGradGradGradGradGradGradGradGradGradGradGradGradGrad
 Berny optimization.
 Using GEDIIS/GDIIS optimizer.
 FormGI is forming the generalized inverse of G from B-inverse, IUseBI=4.
 Internal  Forces:  Max     0.001071055 RMS     0.000366903
 Search for a local minimum.
 Step number   3 out of a maximum of   57
 All quantities printed in internal units (Hartrees-Bohrs-Radians)
 Mixed Optimization -- En-DIIS/RFO-DIIS
 Update second derivatives using D2CorX and points    1    2    3
 DE= -5.02D-04 DEPred=-4.41D-04 R= 1.14D+00
 TightC=F SS=  1.41D+00  RLast= 6.34D-02 DXNew= 7.1715D-01 1.9030D-01
 Trust test= 1.14D+00 RLast= 6.34D-02 DXMaxT set to 4.26D-01
 ITU=  1  1  0
 Use linear search instead of GDIIS.
     Eigenvalues ---    0.01890   0.01935   0.01980   0.02006   0.02032
     Eigenvalues ---    0.02042   0.02100   0.02335   0.15867   0.16009
     Eigenvalues ---    0.18266   0.22492   0.24785   0.25000   0.25007
     Eigenvalues ---    0.25066   0.32231   0.33651   0.35011   0.37759
     Eigenvalues ---    0.38472   0.40121   0.42555   0.43909   0.45013
     Eigenvalues ---    0.49711   0.50877
 RFO step:  Lambda=-9.44854324D-06 EMin= 1.89040359D-02
 Quartic linear search produced a step of  0.14591.
 Iteration  1 RMS(Cart)=  0.00136009 RMS(Int)=  0.00000283
 Iteration  2 RMS(Cart)=  0.00000270 RMS(Int)=  0.00000226
 Iteration  3 RMS(Cart)=  0.00000000 RMS(Int)=  0.00000226
 ClnCor:  largest displacement from symmetrization is 7.50D-10 for atom    11.
 Variable       Old X    -DE/DX   Delta X   Delta X   Delta X     New X
                                 (Linear)    (Quad)   (Total)
    R1        2.58575   0.00079  -0.00031   0.00186   0.00156   2.58731
    R2        2.64642  -0.00047  -0.00138  -0.00052  -0.00191   2.64451
    R3        3.26210   0.00060   0.00415  -0.00080   0.00335   3.26545
    R4        2.58300   0.00035  -0.00003   0.00062   0.00060   2.58359
    R5        2.63525  -0.00018  -0.00100  -0.00002  -0.00102   2.63422
    R6        3.27211   0.00107   0.00418   0.00067   0.00485   3.27695
    R7        2.62195   0.00098   0.00045   0.00176   0.00220   2.62415
    R8        2.04546   0.00038  -0.00014   0.00097   0.00083   2.04628
    R9        2.63086   0.00054  -0.00017   0.00113   0.00096   2.63182
   R10        2.04343   0.00050  -0.00009   0.00126   0.00117   2.04460
   R11        3.26869  -0.00005   0.00313  -0.00191   0.00122   3.26991
    A1        2.03877   0.00028   0.00181   0.00001   0.00183   2.04060
    A2        2.10360  -0.00037  -0.00179  -0.00035  -0.00214   2.10146
    A3        2.14081   0.00009  -0.00002   0.00034   0.00032   2.14113
    A4        2.18945  -0.00073  -0.00362  -0.00093  -0.00454   2.18492
    A5        2.04834   0.00079   0.00300   0.00151   0.00451   2.05285
    A6        2.11693  -0.00056  -0.00176  -0.00133  -0.00309   2.11384
    A7        2.11791  -0.00023  -0.00124  -0.00018  -0.00142   2.11649
    A8        2.08605  -0.00040  -0.00073  -0.00117  -0.00190   2.08414
    A9        2.09175   0.00010   0.00008   0.00005   0.00013   2.09187
   A10        2.10539   0.00030   0.00065   0.00112   0.00178   2.10717
   A11        2.11546  -0.00020  -0.00126   0.00013  -0.00114   2.11432
   A12        2.09603   0.00009   0.00096  -0.00028   0.00069   2.09672
   A13        2.07170   0.00011   0.00030   0.00015   0.00045   2.07215
   A14        2.08830   0.00025   0.00080   0.00044   0.00124   2.08954
   A15        2.10853  -0.00001  -0.00008   0.00000  -0.00007   2.10846
   A16        2.08635  -0.00023  -0.00072  -0.00045  -0.00117   2.08518
    D1        0.00000   0.00000   0.00000   0.00000   0.00000   0.00000
    D2        3.14159   0.00000   0.00000   0.00000   0.00000   3.14159
    D3        0.00000  -0.00000   0.00000  -0.00000   0.00000   0.00000
    D4        3.14159  -0.00000   0.00000  -0.00000   0.00000   3.14159
    D5        3.14159  -0.00000   0.00000  -0.00000   0.00000   3.14159
    D6        0.00000  -0.00000   0.00000  -0.00000   0.00000   0.00000
    D7        0.00000   0.00000   0.00000   0.00000   0.00000   0.00000
    D8        3.14159   0.00000   0.00000   0.00000   0.00000   3.14159
    D9        0.00000  -0.00000   0.00000  -0.00000   0.00000   0.00000
   D10        3.14159  -0.00000   0.00000  -0.00000   0.00000   3.14159
   D11        3.14159  -0.00000   0.00000  -0.00000   0.00000   3.14159
   D12        0.00000  -0.00000   0.00000  -0.00000   0.00000   0.00000
   D13        0.00000   0.00000   0.00000   0.00000   0.00000   0.00000
   D14        3.14159   0.00000   0.00000   0.00000   0.00000   3.14159
   D15        3.14159  -0.00000   0.00000  -0.00000   0.00000   3.14159
   D16        0.00000  -0.00000   0.00000  -0.00000   0.00000   0.00000
   D17        0.00000   0.00000   0.00000   0.00000   0.00000   0.00000
   D18        3.14159   0.00000   0.00000   0.00000   0.00000   3.14159
[...]
     11        1           0.000014616   -0.000042572   -0.000000000
 -------------------------------------------------------------------
 Cartesian Forces:  Max     0.000330844 RMS     0.000133963
 FormGI is forming the generalized inverse of G from B-inverse, IUseBI=4.

 GradGradGradGradGradGradGradGradGradGradGradGradGradGradGradGradGradGrad
 Berny optimization.
 Internal  Forces:  Max     0.000284654 RMS     0.000072170
 Search for a local minimum.
 Step number   1 out of a maximum of    2
 All quantities printed in internal units (Hartrees-Bohrs-Radians)
 Second derivative matrix not updated -- analytic derivatives used.
 ITU=  0
     Eigenvalues ---    0.01647   0.01794   0.01817   0.02346   0.02755
     Eigenvalues ---    0.02973   0.03723   0.03871   0.10992   0.11789
     Eigenvalues ---    0.14649   0.15906   0.17166   0.17876   0.18690
     Eigenvalues ---    0.21329   0.25335   0.26958   0.29359   0.30951
     Eigenvalues ---    0.36712   0.37011   0.43164   0.44438   0.48230
     Eigenvalues ---    0.49637   0.52874
 Angle between quadratic step and forces=  15.71 degrees.
 Linear search not attempted -- first point.
 Iteration  1 RMS(Cart)=  0.00031460 RMS(Int)=  0.00000007
 Iteration  2 RMS(Cart)=  0.00000009 RMS(Int)=  0.00000002
 ClnCor:  largest displacement from symmetrization is 1.04D-12 for atom    11.
 Variable       Old X    -DE/DX   Delta X   Delta X   Delta X     New X
                                 (Linear)    (Quad)   (Total)
    R1        2.58731   0.00017   0.00000   0.00055   0.00055   2.58787
    R2        2.64451   0.00003   0.00000   0.00001   0.00001   2.64453
    R3        3.26545  -0.00020   0.00000  -0.00081  -0.00081   3.26464
    R4        2.58359  -0.00003   0.00000  -0.00017  -0.00017   2.58342
    R5        2.63422   0.00002   0.00000  -0.00002  -0.00002   2.63421
    R6        3.27695   0.00013   0.00000   0.00077   0.00077   3.27772
    R7        2.62415   0.00002   0.00000  -0.00001  -0.00001   2.62414
    R8        2.04628   0.00002   0.00000   0.00001   0.00001   2.04630
    R9        2.63182   0.00009   0.00000   0.00031   0.00031   2.63213
   R10        2.04460   0.00004   0.00000   0.00012   0.00012   2.04472
   R11        3.26991  -0.00028   0.00000  -0.00111  -0.00111   3.26880
    A1        2.04060  -0.00001   0.00000   0.00000   0.00000   2.04060
    A2        2.10146  -0.00005   0.00000  -0.00026  -0.00026   2.10120
    A3        2.14113   0.00006   0.00000   0.00025   0.00025   2.14138
    A4        2.18492  -0.00010   0.00000  -0.00056  -0.00056   2.18436
    A5        2.05285   0.00014   0.00000   0.00086   0.00086   2.05371
    A6        2.11384  -0.00014   0.00000  -0.00086  -0.00086   2.11298
    A7        2.11649  -0.00000   0.00000   0.00000   0.00000   2.11650
    A8        2.08414  -0.00007   0.00000  -0.00055  -0.00055   2.08360
    A9        2.09187   0.00003   0.00000   0.00018   0.00018   2.09205
   A10        2.10717   0.00004   0.00000   0.00037   0.00037   2.10754
   A11        2.11432   0.00001   0.00000   0.00017   0.00017   2.11448
   A12        2.09672  -0.00001   0.00000  -0.00006  -0.00006   2.09666
   A13        2.07215   0.00000   0.00000  -0.00011  -0.00011   2.07204
   A14        2.08954   0.00002   0.00000   0.00008   0.00008   2.08962
   A15        2.10846   0.00003   0.00000   0.00011   0.00011   2.10857
   A16        2.08518  -0.00005   0.00000  -0.00018  -0.00018   2.08500
    D1        0.00000   0.00000   0.00000  -0.00000   0.00000   0.00000
    D2        3.14159   0.00000   0.00000  -0.00000   0.00000   3.14159
    D3        0.00000  -0.00000   0.00000   0.00000   0.00000   0.00000
    D4        3.14159  -0.00000   0.00000  -0.00000   0.00000   3.14159
    D5        3.14159  -0.00000   0.00000   0.00000   0.00000   3.14159
    D6        0.00000  -0.00000   0.00000   0.00000   0.00000   0.00000
    D7        0.00000   0.00000   0.00000   0.00000   0.00000   0.00000
    D8        3.14159   0.00000   0.00000  -0.00000   0.00000   3.14159
    D9        0.00000  -0.00000   0.00000  -0.00000   0.00000   0.00000
   D10        3.14159  -0.00000   0.00000  -0.00000   0.00000   3.14159
   D11        3.14159  -0.00000   0.00000   0.00000   0.00000   3.14159
   D12        0.00000  -0.00000   0.00000   0.00000   0.00000   0.00000
   D13        0.00000   0.00000   0.00000   0.00000   0.00000   0.00000
   D14        3.14159   0.00000   0.00000   0.00000   0.00000   3.14159
   D15        3.14159   0.00000   0.00000   0.00000   0.00000   3.14159
   D16        0.00000   0.00000   0.00000   0.00000   0.00000   0.00000
   D17        0.00000   0.00000   0.00000  -0.00000   0.00000   0.00000
   D18        3.14159   0.00000   0.00000   0.00000   0.00000   3.14159
   D19        3.14159   0.00000   0.00000  -0.00000   0.00000   3.14159
   D20        0.00000   0.00000   0.00000   0.00000   0.00000   0.00000
         Item               Value     Threshold  Converged?
 Maximum Force            0.000285     0.000450     YES
 RMS     Force            0.000072     0.000300     YES
 Maximum Displacement     0.000938     0.001800     YES
 RMS     Displacement     0.000315     0.001200     YES
 Predicted change in Energy=-5.541073D-07
 Optimization completed.
    -- Stationary point found.
                           ----------------------------
                           !   Optimized Parameters   !
                           ! (Angstroms and Degrees)  !
 --------------------------                            --------------------------
 ! Name  Definition              Value          Derivative Info.                !
 --------------------------------------------------------------------------------
 ! R1    R(1,2)                  1.3691         -DE/DX =    0.0002              !
 ! R2    R(1,6)                  1.3994         -DE/DX =    0.0                 !
 ! R3    R(1,8)                  1.728          -DE/DX =   -0.0002              !
 ! R4    R(2,3)                  1.3672         -DE/DX =    0.0                 !
 ! R5    R(3,4)                  1.394          -DE/DX =    0.0                 !
 ! R6    R(3,9)                  1.7341         -DE/DX =    0.0001              !
 ! R7    R(4,5)                  1.3886         -DE/DX =    0.0                 !
 ! R8    R(4,10)                 1.0828         -DE/DX =    0.0                 !
 ! R9    R(5,6)                  1.3927         -DE/DX =    0.0001              !
 ! R10   R(5,11)                 1.082          -DE/DX =    0.0                 !
 ! R11   R(6,7)                  1.7304         -DE/DX =   -0.0003              !
 ! A1    A(2,1,6)              116.9176         -DE/DX =    0.0                 !
 ! A2    A(2,1,8)              120.4047         -DE/DX =   -0.0001              !
 ! A3    A(6,1,8)              122.6777         -DE/DX =    0.0001              !
 ! A4    A(1,2,3)              125.1864         -DE/DX =   -0.0001              !
 ! A5    A(2,3,4)              117.6198         -DE/DX =    0.0001              !
 ! A6    A(2,3,9)              121.1142         -DE/DX =   -0.0001              !
 ! A7    A(4,3,9)              121.266          -DE/DX =    0.0                 !
 ! A8    A(3,4,5)              119.4127         -DE/DX =   -0.0001              !
 ! A9    A(3,4,10)             119.8555         -DE/DX =    0.0                 !
 ! A10   A(5,4,10)             120.7319         -DE/DX =    0.0                 !
 ! A11   A(4,5,6)              121.1415         -DE/DX =    0.0                 !
 ! A12   A(4,5,11)             120.133          -DE/DX =    0.0                 !
 ! A13   A(6,5,11)             118.7255         -DE/DX =    0.0                 !
 ! A14   A(1,6,5)              119.7221         -DE/DX =    0.0                 !
 ! A15   A(1,6,7)              120.8058         -DE/DX =    0.0                 !
 ! A16   A(5,6,7)              119.4721         -DE/DX =    0.0                 !
 ! D1    D(6,1,2,3)              0.0            -DE/DX =    0.0                 !
 ! D2    D(8,1,2,3)            180.0            -DE/DX =    0.0                 !
 ! D3    D(2,1,6,5)              0.0            -DE/DX =    0.0                 !
 ! D4    D(2,1,6,7)            180.0            -DE/DX =    0.0                 !
 ! D5    D(8,1,6,5)            180.0            -DE/DX =    0.0                 !
 ! D6    D(8,1,6,7)              0.0            -DE/DX =    0.0                 !
 ! D7    D(1,2,3,4)              0.0            -DE/DX =    0.0                 !
 ! D8    D(1,2,3,9)            180.0            -DE/DX =    0.0                 !
 ! D9    D(2,3,4,5)              0.0            -DE/DX =    0.0                 !
 ! D10   D(2,3,4,10)           180.0            -DE/DX =    0.0                 !
 ! D11   D(9,3,4,5)            180.0            -DE/DX =    0.0                 !
 ! D12   D(9,3,4,10)             0.0            -DE/DX =    0.0                 !
 ! D13   D(3,4,5,6)              0.0            -DE/DX =    0.0                 !
 ! D14   D(3,4,5,11)           180.0            -DE/DX =    0.0                 !
 ! D15   D(10,4,5,6)           180.0            -DE/DX =    0.0                 !
 ! D16   D(10,4,5,11)            0.0            -DE/DX =    0.0                 !
 ! D17   D(4,5,6,1)              0.0            -DE/DX =    0.0                 !
 ! D18   D(4,5,6,7)            180.0            -DE/DX =    0.0                 !
 ! D19   D(11,5,6,1)           180.0            -DE/DX =    0.0                 !
 ! D20   D(11,5,6,7)             0.0            -DE/DX =    0.0                 !
 --------------------------------------------------------------------------------
 GradGradGradGradGradGradGradGradGradGradGradGradGradGradGradGradGradGrad


 ----------------------------------------------------------------------

 Electric dipole moment (input orientation):
 (Debye = 10**-18 statcoulomb cm , SI units = C m)
                  (au)            (Debye)         (10**-30 SI)
   Tot        0.749582D+00      0.190525D+01      0.635522D+01
   x          0.429671D+00      0.109211D+01      0.364290D+01
   y         -0.614212D+00     -0.156117D+01     -0.520751D+01
   z          0.000000D+00      0.000000D+00      0.000000D+00

 Dipole polarizability, Alpha (input orientation).
 (esu units = cm**3 , SI units = C**2 m**2 J**-1)
 Alpha(0;0):
               (au)            (10**-24 esu)      (10**-40 SI)
   iso        0.102110D+03      0.151311D+02      0.168357D+02
   aniso      0.787946D+02      0.116762D+02      0.129915D+02
   xx         0.142807D+03      0.211619D+02      0.235457D+02
   yx         0.119402D+02      0.176935D+01      0.196867D+01
   yy         0.107929D+03      0.159935D+02      0.177951D+02
   zx         0.000000D+00      0.000000D+00      0.000000D+00
   zy         0.000000D+00      0.000000D+00      0.000000D+00
   zz         0.555934D+02      0.823809D+01      0.916612D+01

 ----------------------------------------------------------------------

 Dipole orientation:
     6         -3.90962693         -2.73497197         -3.58457506
     6         -1.80238971         -1.26085825         -3.30045074
     6         -0.77986387         -0.54555226         -1.03820907
     6         -1.97116976         -1.37892800          1.15847164
     6         -4.11594823         -2.87930364          0.97150203
     6         -5.09686028         -3.56549877         -1.37230350
    17         -7.77386518         -5.43819238         -1.51016831
    17         -5.00220940         -3.49928593         -6.56538405
    17          1.90325138          1.33141583         -0.91056082
     1         -1.21919030         -0.85288222          2.98742623
     1         -5.05809221         -3.53837865          2.66217245

 Electric dipole moment (dipole orientation):
 (Debye = 10**-18 statcoulomb cm , SI units = C m)
                  (au)            (Debye)         (10**-30 SI)
   Tot        0.749582D+00      0.190525D+01      0.635522D+01
   x          0.000000D+00      0.000000D+00      0.000000D+00
   y          0.000000D+00      0.000000D+00      0.000000D+00
   z          0.749582D+00      0.190525D+01      0.635522D+01

 Dipole polarizability, Alpha (dipole orientation).
 (esu units = cm**3 , SI units = C**2 m**2 J**-1)
 Alpha(0;0):
               (au)            (10**-24 esu)      (10**-40 SI)
   iso        0.102110D+03      0.151311D+02      0.168357D+02
   aniso      0.787946D+02      0.116762D+02      0.129915D+02
   xx         0.113988D+03      0.168912D+02      0.187940D+02
   yx         0.408495D+02      0.605327D+01      0.673517D+01
   yy         0.841696D+02      0.124726D+02      0.138777D+02
   zx         0.100691D+02      0.149209D+01      0.166018D+01
   zy         0.704385D+01      0.104379D+01      0.116137D+01
   zz         0.108173D+03      0.160296D+02      0.178353D+02

 ----------------------------------------------------------------------
 1\1\GINC-SH02-01N46\Freq\UM062X\6-311++G(d,p)\C6H2Cl3(2)\JLAPIER\10-De
 c-2025\0\\#N Geom=AllCheck Guess=TCheck SCRF=Check GenChk UM062X/6-311
 ++G(d,p) Freq\\Neutral Radical (removed 3) 12_4\\0,2\C,-3.1562006204,0
 .1070259951,0.\C,-1.9549148012,0.7638939822,0.\C,-0.7276078795,0.16148
 49507,0.\C,-0.691696976,-1.2320232087,0.\C,-1.8833786718,-1.9449157452
 ,0.\C,-3.1134054237,-1.2917349344,0.\Cl,-4.5718341711,-2.22294203,0.\C
 l,-4.6385441393,0.9950797542,0.\Cl,0.7309553216,1.0993840153,0.\H,0.26
 10132695,-1.7467064285,0.\H,-1.8691059079,-3.0267763506,0.\\Version=ES
 64L-G16RevB.01\State=2-A'\HF=-1610.3044966\S2=0.763081\S2-1=0.\S2A=0.7
 50077\RMSD=3.318e-09\RMSF=1.340e-04\ZeroPoint=0.05976\Thermal=0.067566
 6\Dipole=0.429671,-0.6142122,0.\DipoleDeriv=0.7116583,-0.5875115,0.,-0
 .4812038,0.2244065,0.,0.,0.,0.0484632,-0.3233577,0.0071379,0.,-0.04593
 07,-0.1419564,0.,0.,0.,-0.0529811,0.9238447,0.5081164,0.,0.4964807,0.3
 560575,0.,0.,0.,0.0374834,-0.1435791,-0.0779988,0.,-0.0732026,-0.06247
 7,0.,0.,0.,-0.1203578,-0.1785393,-0.1056542,0.,-0.0588843,-0.0251652,0
 .,0.,0.,-0.0932149,0.6603349,0.6354106,0.,0.5473028,0.3242723,0.,0.,0.
 ,-0.0251827,-0.5450227,-0.355846,0.,-0.369548,-0.2898563,0.,0.,0.,-0.0
 325164,-0.5460447,0.3054983,0.,0.3128024,-0.2072353,0.,0.,0.,-0.017297
 9,-0.6409337,-0.3309202,0.,-0.3404362,-0.2653172,0.,0.,0.,-0.0336739,0
 .0206363,0.0141454,0.,0.0209496,0.0711272,0.,0.,0.,0.1422176,0.0610029
 ,-0.012378,0.,-0.0083299,0.0161439,0.,0.,0.,0.1470607\Polar=142.807316
 4,11.9401665,107.9292292,0.,0.,55.593411\Quadrupole=-0.2254132,1.83188
 05,-1.6064673,-2.8173977,0.,0.\PG=CS [SG(C6H2Cl3)]\NImag=0\\0.59450410
 ,0.04166500,0.56322357,0.,0.,0.11659932,-0.29252516,-0.10327561,0.,0.6
 9737530,-0.13114737,-0.15071160,0.,0.00476365,0.34365937,0.,0.,-0.0541
 8422,0.,0.,0.07252769,-0.06093375,-0.02876294,0.,-0.30300760,0.1251157
 6,0.,0.59159651,0.02187093,0.07319199,0.,0.09624831,-0.14131045,0.,-0.
 04851454,0.57142269,0.,0.,0.00719107,0.,0.,-0.05586902,0.,0.,0.1192426
 5,-0.01529487,-0.03728695,0.,0.02818256,0.02845714,0.,-0.11153978,0.06
 176089,0.,0.74315838,-0.03649176,-0.06317729,0.,0.09639624,-0.02477653
 ,0.,-0.02657934,-0.31676041,0.,-0.03463746,0.66968146,0.,0.,-0.0025615
 9,0.,0.,0.01526736,0.,0.,-0.06531600,0.,0.,0.12947773,0.03762236,0.088
 86518,0.,-0.08378051,-0.00050360,0.,0.04476639,-0.08907125,0.,-0.29280
 885,-0.05694243,0.,0.67133950,0.02341940,-0.02305019,0.,-0.00081798,-0
 .00576250,0.,-0.02264798,-0.03025484,0.,-0.13614687,-0.18583316,0.,0.0
 1287885,0.75840431,0.,0.,0.00941561,0.,0.,-0.00471836,0.,0.,0.00819718
 ,0.,0.,-0.06096438,0.,0.,0.13128594,-0.09646604,-0.03476840,0.,0.03689
 432,-0.02269482,0.,-0.02346093,0.04284941,0.,-0.06160082,-0.03678888,0
 .,-0.26898014,0.13102530,0.,0.57378769,0.05163823,-0.29811862,0.,-0.09
 716374,-0.02681457,0.,0.04059384,-0.06415818,0.,0.02838075,0.07285283,
 0.,0.05342881,-0.17051720,0.,-0.04187500,0.59503522,0.,0.,-0.06552343,
 0.,0.,0.01513188,0.,0.,-0.00488615,0.,0.,0.00643045,0.,0.,-0.06274022,
 0.,0.,0.11876033,-0.01544462,-0.00807546,0.,-0.00024421,-0.00172619,0.
 ,0.00109652,-0.00072943,0.,-0.00005157,0.00584520,0.,-0.04000841,-0.02
 510070,0.,-0.14464972,-0.06779145,0.,0.19820235,-0.03358966,-0.0210264
 4,0.,0.00196080,-0.00494026,0.,0.00067167,0.00155556,0.,0.00106265,-0.
 00021041,0.,0.00002098,0.00442109,0.,-0.06465570,-0.08021474,0.,0.0974
 0029,0.10535889,0.,0.,0.00409951,0.,0.,0.00372757,0.,0.,-0.00058581,0.
 ,0.,0.00450179,0.,0.,0.00407450,0.,0.,-0.02225891,0.,0.,0.01074210,-0.
 14797296,0.07848417,0.,-0.04254809,0.01387467,0.,0.00116800,-0.0025978
 4,0.,-0.00177814,0.00187854,0.,0.00220850,0.00068241,0.,-0.01593311,0.
 00826013,0.,0.00316050,-0.00273892,0.,0.20339288,0.06047792,-0.0773385
 6,0.,0.00505645,0.00845004,0.,-0.00290063,-0.00147503,0.,0.00156588,-0
 .00006325,0.,-0.00411150,-0.00417084,0.,0.03344125,-0.01818916,0.,0.00
 309351,-0.00538580,0.,-0.09810103,0.09795041,0.,0.,-0.02266045,0.,0.,0
 .00183011,0.,0.,0.00382492,0.,0.,-0.00024345,0.,0.,0.00328276,0.,0.,0.
 00527903,0.,0.,-0.00140385,0.,0.,0.01046978,0.00016948,0.00206847,0.,-
 0.03989894,-0.01639974,0.,-0.13864642,-0.07558070,0.,-0.01162728,-0.00
 933761,0.,0.00172753,-0.00059776,0.,0.00049707,-0.00055641,0.,-0.00153
 137,-0.00112727,0.,-0.00115821,0.00000091,0.,0.19020007,0.00179779,-0.
 00278732,0.,-0.00461591,0.00706736,0.,-0.06173949,-0.08127995,0.,-0.03
 789530,-0.01921789,0.,0.00470131,-0.00356884,0.,-0.00109150,0.00136263
 ,0.,-0.00113324,-0.00056692,0.,0.00003813,0.00033186,0.,0.10146832,0.0
 9766848,0.,0.,0.00352998,0.,0.,0.00177442,0.,0.,-0.02245754,0.,0.,0.00
 579641,0.,0.,0.00419127,0.,0.,0.00016962,0.,0.,-0.00036772,0.,0.,-0.00
 025472,0.,0.,0.01024660,-0.00004739,-0.00072716,0.,0.00108294,0.000297
 31,0.,0.00218126,-0.00358136,0.,-0.28140560,0.12358714,0.,-0.01633934,
 0.01361831,0.,-0.00169526,-0.00272295,0.,-0.00096526,0.00015027,0.,0.0
 0011349,0.00002301,0.,0.00090848,-0.00025511,0.,0.29543791,-0.00161629
 ,-0.00040511,0.,0.00139670,-0.00567319,0.,0.02684839,-0.01165633,0.,0.
 12246887,-0.12282173,0.,-0.01566120,0.01170213,0.,-0.00285785,-0.00062
 822,0.,-0.00094657,0.00012889,0.,0.00009663,0.00009726,0.,0.00020937,0
 .00143851,0.,-0.13033456,0.12723432,0.,0.,-0.00112566,0.,0.,0.00536093
 ,0.,0.,0.00369282,0.,0.,-0.03574555,0.,0.,0.00338230,0.,0.,0.00690398,
 0.,0.,0.00013427,0.,0.,-0.00019906,0.,0.,-0.00256940,0.,0.,0.02448631,
 -0.00361116,0.00181370,0.,-0.00153061,-0.00003679,0.,-0.00322019,-0.00
 265442,0.,0.00476596,-0.02692964,0.,-0.05574703,0.00368702,0.,0.001606
 95,0.02780779,0.,0.00043579,0.00084488,0.,-0.00065287,0.00145424,0.,-0
 .00064042,-0.00127500,0.,0.00072876,0.00039651,0.,0.05786483,0.0019758
 0,0.00019956,0.,0.00005110,0.00081233,0.,-0.00208474,0.00072495,0.,0.0
 0227040,-0.00967362,0.,0.00639486,-0.35136997,0.,-0.00258381,-0.010609
 99,0.,-0.00083595,0.00088012,0.,0.00012311,-0.00020694,0.,-0.00014758,
 -0.00044792,0.,-0.00005490,0.00058346,0.,-0.00510829,0.36910801,0.,0.,
 0.00521987,0.,0.,-0.00084834,0.,0.,0.00696589,0.,0.,0.00335724,0.,0.,-
 0.03540660,0.,0.,0.00273344,0.,0.,-0.00266346,0.,0.,0.00007494,0.,0.,-
 0.00005891,0.,0.,-0.00432093,0.,0.,0.02494687\\0.00033084,0.00003939,0
 .,-0.00021029,-0.00025266,0.,0.00027030,0.00020796,0.,-0.00011766,0.00
 004319,0.,-0.00001938,-0.00001527,0.,0.00029879,0.00009793,0.,-0.00025
 627,-0.00012681,0.,-0.00018060,0.00007757,0.,-0.00007972,-0.00011147,0
 .,-0.00002139,-0.00000240,0.,-0.00001462,0.00004257,0.\\\@


 IF YOU WISH TO UNDERSTAND THE FRAGRANCE OF THE ROSE, 
 OR THE TENACITY OF THE OAK; 
 IF YOU ARE NOT SATISFIED UNTIL YOU KNOW THE SECRET PATHS 
 BY WHICH THE SUNSHINE AND THE AIR ACHIEVE THESE WONDERS; 
 IF YOU WISH TO SEE THE PATTERN WHICH UNDERLIES ONE LARGE FIELD OF 
 HUMAN EXPERIENCE AND HUMAN MEASUREMENT, THEN TAKE UP CHEMISTRY.

                                         -- C. A. COULSON, 1973.
 Job cpu time:       0 days  0 hours 43 minutes 50.7 seconds.
 Elapsed time:       0 days  0 hours 10 minutes 59.8 seconds.
 File lengths (MBytes):  RWF=    172 Int=      0 D2E=      0 Chk=     34 Scr=      1
 Normal termination of Gaussian 16 at Wed Dec 10 11:11:46 2025.
