 Entering Gaussian System, Link 0=g16
 Initial command:
 /share/software/user/restricted/gaussian/g16.B01/l1.exe "/home/users/jlapier/Chloroaromatics/Gau-4276.inp" -scrdir="/home/users/jlapier/Chloroaromatics/"
 Entering Link 1 = /share/software/user/restricted/gaussian/g16.B01/l1.exe PID=      4277.
  
 Copyright (c) 1988-2017, Gaussian, Inc.  All Rights Reserved.
  
 This is part of the Gaussian(R) 16 program.  It is based on
 the Gaussian(R) 09 system (copyright 2009, Gaussian, Inc.),
 the Gaussian(R) 03 system (copyright 2003, Gaussian, Inc.),
 the Gaussian(R) 98 system (copyright 1998, Gaussian, Inc.),
 the Gaussian(R) 94 system (copyright 1995, Gaussian, Inc.),
 the Gaussian 92(TM) system (copyright 1992, Gaussian, Inc.),
 the Gaussian 90(TM) system (copyright 1990, Gaussian, Inc.),
 the Gaussian 88(TM) system (copyright 1988, Gaussian, Inc.),
 the Gaussian 86(TM) system (copyright 1986, Carnegie Mellon
 University), and the Gaussian 82(TM) system (copyright 1983,
 Carnegie Mellon University). Gaussian is a federally registered
 trademark of Gaussian, Inc.
  
 This software contains proprietary and confidential information,
 including trade secrets, belonging to Gaussian, Inc.
  
 This software is provided under written license and may be
 used, copied, transmitted, or stored only in accord with that
 written license.
  
 The following legend is applicable only to US Government
 contracts under FAR:
  
                    RESTRICTED RIGHTS LEGEND
  
 Use, reproduction and disclosure by the US Government is
 subject to restrictions as set forth in subparagraphs (a)
 and (c) of the Commercial Computer Software - Restricted
 Rights clause in FAR 52.227-19.
  
 Gaussian, Inc.
 340 Quinnipiac St., Bldg. 40, Wallingford CT 06492
  
  
 ---------------------------------------------------------------
 Warning -- This program may not be used in any manner that
 competes with the business of Gaussian, Inc. or will provide
 assistance to any competitor of Gaussian, Inc.  The licensee
 of this program is prohibited from giving any competitor of
 Gaussian, Inc. access to this program.  By using this program,
 the user acknowledges that Gaussian, Inc. is engaged in the
 business of creating and licensing software in the field of
 computational chemistry and represents and warrants to the
 licensee that it is not a competitor of Gaussian, Inc. and that
 it will not use this program in any manner prohibited above.
 ---------------------------------------------------------------
  

 Cite this work as:
 Gaussian 16, Revision B.01,
 M. J. Frisch, G. W. Trucks, H. B. Schlegel, G. E. Scuseria, 
 M. A. Robb, J. R. Cheeseman, G. Scalmani, V. Barone, 
 G. A. Petersson, H. Nakatsuji, X. Li, M. Caricato, A. V. Marenich, 
 J. Bloino, B. G. Janesko, R. Gomperts, B. Mennucci, H. P. Hratchian, 
 J. V. Ortiz, A. F. Izmaylov, J. L. Sonnenberg, D. Williams-Young, 
 F. Ding, F. Lipparini, F. Egidi, J. Goings, B. Peng, A. Petrone, 
 T. Henderson, D. Ranasinghe, V. G. Zakrzewski, J. Gao, N. Rega, 
 G. Zheng, W. Liang, M. Hada, M. Ehara, K. Toyota, R. Fukuda, 
 J. Hasegawa, M. Ishida, T. Nakajima, Y. Honda, O. Kitao, H. Nakai, 
 T. Vreven, K. Throssell, J. A. Montgomery, Jr., J. E. Peralta, 
 F. Ogliaro, M. J. Bearpark, J. J. Heyd, E. N. Brothers, K. N. Kudin, 
 V. N. Staroverov, T. A. Keith, R. Kobayashi, J. Normand, 
 K. Raghavachari, A. P. Rendell, J. C. Burant, S. S. Iyengar, 
 J. Tomasi, M. Cossi, J. M. Millam, M. Klene, C. Adamo, R. Cammi, 
 J. W. Ochterski, R. L. Martin, K. Morokuma, O. Farkas, 
 J. B. Foresman, and D. J. Fox, Gaussian, Inc., Wallingford CT, 2016.
 
 ******************************************
 Gaussian 16:  ES64L-G16RevB.01 20-Dec-2017
                10-Dec-2025 
 ******************************************
 %mem=8GB
 %nprocshare=4
 Will use up to    4 processors via shared memory.
 %oldchk=geometry_chks/123456-12_456-ClBzNeutralRadical.chk
 %chk=frequency_chks/123456-12_456-ClBzNeutralRadical_Freq.chk
 Copying data from "geometry_chks/123456-12_456-ClBzNeutralRadical.chk" to current chk file "frequency_chks/123456-12_456-ClBzNeutralRadical_Freq.chk"
 IOpt=  2 FromEx=T IUOpen= 4 IOptOp= 5 NList=   0 IFRang= 0 IUIn= 4 IUOut= 2.
 -------------------------------------------------------
 # opt freq 6-311++g(d,p) guess=read geom=allcheck m062x
 -------------------------------------------------------
 1/18=20,19=15,26=3,29=7,38=1/1,3;
 2/9=110,12=2,40=1/2;
 3/5=4,6=6,7=1111,11=2,14=-4,25=1,30=1,71=1,74=-55,116=-2/1,2,3;
 4/5=1/1;
 5/5=2,38=6/2;
 6/7=2,8=2,9=2,10=2,28=1/1;
 7//1,2,3,16;
 1/18=20,19=15,26=3/3(2);
 2/9=110/2;
 99//99;
 2/9=110/2;
 3/5=4,6=6,7=1111,11=2,14=-2,25=1,30=1,71=1,74=-55/1,2,3;
 4/5=5,16=3,69=1/1;
 5/5=2,38=5/2;
 7//1,2,3,16;
 1/18=20,19=15,26=3/3(-5);
 2/9=110/2;
 6/7=2,8=2,9=2,10=2,19=2,28=1/1;
 99/9=1/99;
 Structure from the checkpoint file:  "frequency_chks/123456-12_456-ClBzNeutralRadical_Freq.chk"
 ----------------------------------
 Neutral Radical (removed 3) 12_456
 ----------------------------------
 Charge =  0 Multiplicity = 2
 Redundant internal coordinates found in file.  (old form).
 C,0,-3.2337205295,0.1959889844,0.
 C,0,-2.0081895235,0.815077212,0.
 C,0,-0.7505182033,0.2642055567,0.
 C,0,-0.7168459174,-1.1561550193,0.
 C,0,-1.934150765,-1.880059904,0.
 C,0,-3.1893625342,-1.2240780416,0.
 Cl,0,-4.6235363345,-2.1067176727,0.
 Cl,0,-4.6662184969,1.068156674,0.
 Cl,0,0.6319362297,1.2137039551,0.
 Cl,0,0.76362295,-1.9587255807,0.
 Cl,0,-1.8877368755,-3.5696261639,0.
 Recover connectivity data from disk.

 GradGradGradGradGradGradGradGradGradGradGradGradGradGradGradGradGradGrad
 Berny optimization.
 Initialization pass.
                           ----------------------------
                           !    Initial Parameters    !
                           ! (Angstroms and Degrees)  !
 --------------------------                            --------------------------
 ! Name  Definition              Value          Derivative Info.                !
 --------------------------------------------------------------------------------
 ! R1    R(1,2)                  1.373          estimate D2E/DX2                !
 ! R2    R(1,6)                  1.4208         estimate D2E/DX2                !
 ! R3    R(1,8)                  1.6771         estimate D2E/DX2                !
 ! R4    R(2,3)                  1.373          estimate D2E/DX2                !
 ! R5    R(3,4)                  1.4208         estimate D2E/DX2                !
 ! R6    R(3,9)                  1.6771         estimate D2E/DX2                !
 ! R7    R(4,5)                  1.4163         estimate D2E/DX2                !
 ! R8    R(4,10)                 1.684          estimate D2E/DX2                !
 ! R9    R(5,6)                  1.4163         estimate D2E/DX2                !
 ! R10   R(5,11)                 1.6902         estimate D2E/DX2                !
 ! R11   R(6,7)                  1.684          estimate D2E/DX2                !
 ! A1    A(2,1,6)              115.0119         estimate D2E/DX2                !
 ! A2    A(2,1,8)              121.8641         estimate D2E/DX2                !
 ! A3    A(6,1,8)              123.124          estimate D2E/DX2                !
 ! A4    A(1,2,3)              129.5451         estimate D2E/DX2                !
 ! A5    A(2,3,4)              115.0119         estimate D2E/DX2                !
 ! A6    A(2,3,9)              121.864          estimate D2E/DX2                !
 ! A7    A(4,3,9)              123.124          estimate D2E/DX2                !
 ! A8    A(3,4,5)              119.381          estimate D2E/DX2                !
 ! A9    A(3,4,10)             119.8204         estimate D2E/DX2                !
 ! A10   A(5,4,10)             120.7986         estimate D2E/DX2                !
 ! A11   A(4,5,6)              121.6691         estimate D2E/DX2                !
 ! A12   A(4,5,11)             119.1655         estimate D2E/DX2                !
 ! A13   A(6,5,11)             119.1654         estimate D2E/DX2                !
 ! A14   A(1,6,5)              119.381          estimate D2E/DX2                !
 ! A15   A(1,6,7)              119.8204         estimate D2E/DX2                !
 ! A16   A(5,6,7)              120.7986         estimate D2E/DX2                !
 ! D1    D(6,1,2,3)              0.0            estimate D2E/DX2                !
 ! D2    D(8,1,2,3)            180.0            estimate D2E/DX2                !
 ! D3    D(2,1,6,5)              0.0            estimate D2E/DX2                !
 ! D4    D(2,1,6,7)            180.0            estimate D2E/DX2                !
 ! D5    D(8,1,6,5)            180.0            estimate D2E/DX2                !
 ! D6    D(8,1,6,7)              0.0            estimate D2E/DX2                !
 ! D7    D(1,2,3,4)              0.0            estimate D2E/DX2                !
 ! D8    D(1,2,3,9)            180.0            estimate D2E/DX2                !
 ! D9    D(2,3,4,5)              0.0            estimate D2E/DX2                !
 ! D10   D(2,3,4,10)           180.0            estimate D2E/DX2                !
 ! D11   D(9,3,4,5)            180.0            estimate D2E/DX2                !
 ! D12   D(9,3,4,10)             0.0            estimate D2E/DX2                !
 ! D13   D(3,4,5,6)              0.0            estimate D2E/DX2                !
 ! D14   D(3,4,5,11)           180.0            estimate D2E/DX2                !
 ! D15   D(10,4,5,6)           180.0            estimate D2E/DX2                !
 ! D16   D(10,4,5,11)            0.0            estimate D2E/DX2                !
 ! D17   D(4,5,6,1)              0.0            estimate D2E/DX2                !
 ! D18   D(4,5,6,7)            180.0            estimate D2E/DX2                !
 ! D19   D(11,5,6,1)           180.0            estimate D2E/DX2                !
 ! D20   D(11,5,6,7)             0.0            estimate D2E/DX2                !
 --------------------------------------------------------------------------------
 Trust Radius=3.00D-01 FncErr=1.00D-07 GrdErr=1.00D-06 EigMax=2.50D+02 EigMin=1.00D-04
 Number of steps in this run=     57 maximum allowed number of steps=    100.
 GradGradGradGradGradGradGradGradGradGradGradGradGradGradGradGradGradGrad

                          Input orientation:                          
 ---------------------------------------------------------------------
 Center     Atomic      Atomic             Coordinates (Angstroms)
 Number     Number       Type             X           Y           Z
 ---------------------------------------------------------------------
      1          6           0       -3.233721    0.195989    0.000000
      2          6           0       -2.008190    0.815077    0.000000
      3          6           0       -0.750518    0.264206    0.000000
      4          6           0       -0.716846   -1.156155    0.000000
      5          6           0       -1.934151   -1.880060    0.000000
      6          6           0       -3.189363   -1.224078    0.000000
      7         17           0       -4.623536   -2.106718    0.000000
      8         17           0       -4.666218    1.068157    0.000000
      9         17           0        0.631936    1.213704    0.000000
     10         17           0        0.763623   -1.958726    0.000000
     11         17           0       -1.887737   -3.569626    0.000000
 ---------------------------------------------------------------------
                    Distance matrix (angstroms):
                    1          2          3          4          5
     1  C    0.000000
     2  C    1.373025   0.000000
     3  C    2.484139   1.373025   0.000000
     4  C    2.857088   2.356549   1.420760   0.000000
     5  C    2.449257   2.696154   2.449257   1.416287   0.000000
     6  C    1.420760   2.356549   2.857088   2.473449   1.416287
     7  Cl   2.689618   3.921342   4.541095   4.020672   2.698920
     8  Cl   1.677119   2.670050   3.997380   4.532671   4.019474
     9  Cl   3.997380   2.670050   1.677119   2.726801   4.019475
    10  Cl   4.541096   3.921342   2.689618   1.684015   2.698920
    11  Cl   3.998941   4.386358   3.998941   2.682504   1.690204
                    6          7          8          9         10
     6  C    0.000000
     7  Cl   1.684015   0.000000
     8  Cl   2.726801   3.175161   0.000000
     9  Cl   4.532671   6.216526   5.300154   0.000000
    10  Cl   4.020672   5.389192   6.216526   3.175162   0.000000
    11  Cl   2.682504   3.102370   5.406384   5.406385   3.102372
                   11
    11  Cl   0.000000
 Stoichiometry    C6Cl5(2)
 Framework group  CS[SG(C6Cl5)]
 Deg. of freedom    19
 Full point group                 CS      NOp   2
 Largest Abelian subgroup         CS      NOp   2
 Largest concise Abelian subgroup C1      NOp   1
                         Standard orientation:                         
 ---------------------------------------------------------------------
 Center     Atomic      Atomic             Coordinates (Angstroms)
 Number     Number       Type             X           Y           Z
 ---------------------------------------------------------------------
      1          6           0       -1.130645    1.242070    0.000000
      2          6           0       -1.715846    0.000000    0.000000
      3          6           0       -1.130645   -1.242070    0.000000
      4          6           0        0.290105   -1.236725    0.000000
      5          6           0        0.980308   -0.000000    0.000000
      6          6           0        0.290105    1.236725    0.000000
      7         17           0        1.133028    2.694596    0.000000
      8         17           0       -2.041821    2.650077    0.000000
      9         17           0       -2.041822   -2.650077    0.000000
     10         17           0        1.133027   -2.694596    0.000000
     11         17           0        2.670512    0.000001    0.000000
 ---------------------------------------------------------------------
 Rotational constants (GHZ):           0.7115011           0.4711252           0.2834421
 Standard basis: 6-311++G(d,p) (5D, 7F)
 There are   217 symmetry adapted cartesian basis functions of A'  symmetry.
 There are    76 symmetry adapted cartesian basis functions of A"  symmetry.
 There are   206 symmetry adapted basis functions of A'  symmetry.
 There are    76 symmetry adapted basis functions of A"  symmetry.
   282 basis functions,   481 primitive gaussians,   293 cartesian basis functions
    61 alpha electrons       60 beta electrons
       nuclear repulsion energy      1062.8292716576 Hartrees.
 NAtoms=   11 NActive=   11 NUniq=   11 SFac= 1.00D+00 NAtFMM=   60 NAOKFM=F Big=F
 Integral buffers will be    131072 words long.
 Raffenetti 2 integral format.
 Two-electron integral symmetry is turned on.
 One-electron integrals computed using PRISM.
 NBasis=   282 RedAO= T EigKep=  2.43D-06  NBF=   206    76
 NBsUse=   280 1.00D-06 EigRej=  4.48D-07 NBFU=   204    76
 Initial guess from the checkpoint file:  "frequency_chks/123456-12_456-ClBzNeutralRadical_Freq.chk"
 B after Tr=    -0.000000    0.000000   -0.000000
         Rot=    1.000000    0.000000    0.000000    0.000000 Ang=   0.00 deg.
 Initial guess orbital symmetries:
 Alpha Orbitals:
       Occupied  (A') (A') (A') (A') (A') (A') (A') (A') (A') (A')
                 (A') (A') (A') (A') (A") (A') (A') (A") (A") (A")
                 (A') (A") (A') (A') (A') (A') (A") (A') (A") (A")
                 (A") (A") (A') (A') (A') (A') (A') (A") (A') (A')
                 (A') (A') (A') (A') (A') (A') (A') (A') (A') (A')
                 (A') (A') (A') (A') (A') (A') (A') (A') (A') (A')
                 (A')
       Virtual   (A') (A') (A') (A') (A') (A') (A') (A') (A') (A')
                 (A') (A') (A') (A') (A') (A') (A') (A') (A') (A')
                 (A') (A') (A') (A') (A') (A') (A') (A') (A') (A')
                 (A') (A') (A') (A') (A') (A') (A') (A') (A') (A')
                 (A') (A') (A') (A') (A') (A') (A') (A') (A') (A')
                 (A') (A') (A') (A') (A') (A') (A') (A') (A') (A')
                 (A') (A') (A') (A') (A') (A') (A') (A') (A') (A')
                 (A') (A') (A') (A') (A') (A') (A') (A') (A') (A')
                 (A') (A') (A') (A') (A') (A') (A') (A') (A') (A')
                 (A') (A') (A') (A') (A') (A') (A') (A') (A') (A')
                 (A') (A') (A') (A') (A') (A') (A') (A') (A') (A')
                 (A') (A') (A') (A') (A') (A') (A') (A') (A') (A')
                 (A') (A') (A') (A') (A') (A') (A') (A') (A') (A')
                 (A') (A') (A') (A') (A') (A') (A') (A') (A') (A')
                 (A') (A') (A') (A') (A') (A') (A') (A') (A') (A')
                 (A') (A') (A') (A') (A") (A") (A") (A") (A") (A")
                 (A") (A") (A") (A") (A") (A") (A") (A") (A") (A")
                 (A") (A") (A") (A") (A") (A") (A") (A") (A") (A")
                 (A") (A") (A") (A") (A") (A") (A") (A") (A") (A")
                 (A") (A") (A") (A") (A") (A") (A") (A") (A") (A")
                 (A") (A") (A") (A") (A") (A") (A") (A") (A") (A")
                 (A") (A") (A") (A") (A") (A") (A") (A") (A")
 Beta  Orbitals:
       Occupied  (A') (A') (A') (A') (A') (A') (A') (A') (A') (A')
                 (A') (A') (A') (A') (A") (A') (A') (A") (A") (A")
                 (A") (A') (A') (A') (A') (A') (A") (A") (A") (A')
                 (A") (A") (A') (A') (A') (A') (A') (A") (A') (A')
                 (A') (A') (A') (A') (A') (A') (A') (A') (A') (A')
                 (A') (A') (A') (A') (A') (A') (A') (A') (A') (A')
       Virtual   (A') (A') (A') (A') (A') (A') (A') (A') (A') (A')
                 (A') (A') (A') (A') (A') (A') (A') (A') (A') (A')
                 (A') (A') (A') (A') (A') (A') (A') (A') (A') (A')
                 (A') (A') (A') (A') (A') (A') (A') (A') (A') (A')
                 (A') (A') (A') (A') (A') (A') (A') (A') (A') (A')
                 (A') (A') (A') (A') (A') (A') (A') (A') (A') (A')
                 (A') (A') (A') (A') (A') (A') (A') (A') (A') (A')
                 (A') (A') (A') (A') (A') (A') (A') (A') (A') (A')
                 (A') (A') (A') (A') (A') (A') (A') (A') (A') (A')
                 (A') (A') (A') (A') (A') (A') (A') (A') (A') (A')
                 (A') (A') (A') (A') (A') (A') (A') (A') (A') (A')
                 (A') (A') (A') (A') (A') (A') (A') (A') (A') (A')
                 (A') (A') (A') (A') (A') (A') (A') (A') (A') (A')
                 (A') (A') (A') (A') (A') (A') (A') (A') (A') (A')
                 (A') (A') (A') (A') (A') (A') (A') (A') (A') (A')
                 (A') (A') (A') (A') (A') (A") (A") (A") (A") (A")
                 (A") (A") (A") (A") (A") (A") (A") (A") (A") (A")
                 (A") (A") (A") (A") (A") (A") (A") (A") (A") (A")
                 (A") (A") (A") (A") (A") (A") (A") (A") (A") (A")
                 (A") (A") (A") (A") (A") (A") (A") (A") (A") (A")
                 (A") (A") (A") (A") (A") (A") (A") (A") (A") (A")
                 (A") (A") (A") (A") (A") (A") (A") (A") (A") (A")
 Initial guess <Sx>= 0.0000 <Sy>= 0.0000 <Sz>= 0.5000 <S**2>= 0.7500 S= 0.5000
 Requested convergence on RMS density matrix=1.00D-08 within 128 cycles.
 Requested convergence on MAX density matrix=1.00D-06.
 Requested convergence on             energy=1.00D-06.
 No special actions if energy rises.
 EnCoef did     5 forward-backward iterations
 EnCoef did     8 forward-backward iterations
 Restarting incremental Fock formation.
 SCF Done:  E(UM062X) =  -2529.48452024     A.U. after   29 cycles
            NFock= 29  Conv=0.38D-08     -V/T= 2.0022
 <Sx>= 0.0000 <Sy>= 0.0000 <Sz>= 0.5000 <S**2>= 0.7640 S= 0.5070
 <L.S>=  0.00000000000    
 Annihilation of the first spin contaminant:
 S**2 before annihilation     0.7640,   after     0.7501

 **********************************************************************

            Population analysis using the SCF Density.

 **********************************************************************

 Orbital symmetries:
 Alpha Orbitals:
       Occupied  (A') (A') (A') (A') (A') (A') (A') (A') (A') (A')
                 (A') (A') (A') (A') (A') (A') (A') (A') (A') (A')
                 (A') (A") (A") (A') (A') (A") (A") (A') (A') (A")
                 (A') (A') (A') (A') (A') (A') (A') (A') (A') (A')
                 (A') (A') (A') (A') (A") (A') (A') (A') (A") (A")
                 (A") (A') (A") (A') (A') (A') (A") (A') (A') (A")
                 (A")
       Virtual   (A") (A") (A') (A') (A') (A') (A') (A') (A") (A')
                 (A') (A') (A") (A") (A') (A') (A") (A') (A") (A')
                 (A') (A") (A') (A') (A') (A") (A") (A") (A') (A')
                 (A') (A') (A") (A') (A') (A') (A") (A') (A') (A')
                 (A') (A") (A') (A') (A') (A') (A') (A') (A') (A')
                 (A') (A') (A') (A') (A') (A') (A") (A') (A") (A')
                 (A") (A') (A') (A') (A') (A") (A') (A") (A') (A')
                 (A") (A') (A") (A") (A') (A") (A") (A') (A') (A')
                 (A') (A") (A') (A') (A") (A') (A") (A') (A") (A')
                 (A') (A') (A") (A') (A") (A') (A") (A") (A') (A")
                 (A') (A") (A') (A') (A') (A') (A') (A') (A') (A")
                 (A') (A') (A') (A") (A') (A') (A') (A') (A') (A")
                 (A') (A') (A') (A") (A") (A') (A') (A') (A") (A")
                 (A') (A') (A') (A') (A') (A') (A") (A") (A') (A')
                 (A') (A") (A') (A") (A") (A') (A') (A') (A') (A")
                 (A") (A') (A") (A") (A") (A') (A") (A') (A') (A')
                 (A') (A') (A') (A') (A') (A') (A') (A") (A') (A')
                 (A") (A") (A") (A") (A') (A') (A") (A') (A') (A')
                 (A') (A') (A') (A') (A') (A') (A') (A') (A') (A')
                 (A') (A') (A') (A') (A') (A') (A') (A') (A') (A")
                 (A") (A") (A") (A") (A') (A') (A') (A') (A') (A')
                 (A') (A') (A') (A') (A') (A') (A') (A') (A')
 Beta  Orbitals:
       Occupied  (A') (A') (A') (A') (A') (A') (A') (A') (A') (A')
                 (A') (A') (A') (A') (A') (A') (A') (A') (A') (A')
                 (A') (A") (A") (A') (A') (A") (A") (A') (A') (A")
                 (A') (A') (A') (A') (A') (A') (A') (A') (A') (A')
                 (A') (A') (A') (A') (A") (A') (A') (A') (A") (A")
                 (A") (A") (A') (A') (A') (A') (A") (A') (A") (A")
       Virtual   (A') (A") (A") (A') (A') (A') (A') (A') (A') (A")
                 (A') (A') (A') (A") (A") (A') (A') (A") (A') (A")
                 (A') (A') (A") (A') (A') (A') (A") (A') (A") (A')
                 (A") (A') (A') (A") (A') (A') (A') (A") (A') (A')
                 (A') (A') (A") (A') (A') (A') (A') (A') (A') (A')
                 (A') (A') (A') (A') (A') (A') (A') (A') (A") (A")
                 (A') (A") (A') (A') (A') (A') (A") (A') (A") (A')
                 (A') (A") (A') (A') (A") (A") (A") (A") (A') (A')
                 (A') (A') (A") (A') (A') (A") (A') (A") (A') (A")
                 (A') (A') (A') (A") (A') (A") (A') (A') (A") (A")
                 (A") (A') (A") (A') (A') (A') (A') (A') (A') (A')
                 (A") (A') (A') (A') (A") (A') (A') (A') (A') (A')
                 (A') (A") (A') (A') (A") (A") (A') (A') (A') (A")
                 (A") (A') (A') (A') (A') (A') (A') (A") (A") (A')
                 (A') (A') (A") (A') (A") (A") (A') (A') (A') (A')
                 (A") (A") (A') (A") (A") (A") (A') (A") (A') (A')
                 (A') (A') (A') (A') (A') (A') (A') (A') (A") (A')
                 (A') (A") (A") (A") (A") (A') (A') (A") (A') (A')
                 (A') (A') (A') (A') (A') (A') (A') (A') (A') (A')
                 (A') (A') (A') (A') (A') (A') (A') (A') (A') (A')
                 (A") (A") (A") (A") (A") (A') (A') (A') (A') (A')
                 (A') (A') (A') (A') (A') (A') (A') (A') (A') (A')
 The electronic state is 2-A'.
 Alpha  occ. eigenvalues -- -102.71027-102.71027-102.70869-102.70869-102.70609
 Alpha  occ. eigenvalues --  -10.65798 -10.65790 -10.65553 -10.65402 -10.65402
 Alpha  occ. eigenvalues --  -10.62180  -9.85354  -9.85354  -9.85207  -9.85207
 Alpha  occ. eigenvalues --   -9.84959  -7.57924  -7.57924  -7.57748  -7.57748
 Alpha  occ. eigenvalues --   -7.57491  -7.57164  -7.57164  -7.57156  -7.57156
 Alpha  occ. eigenvalues --   -7.57041  -7.57041  -7.57003  -7.57003  -7.56776
 Alpha  occ. eigenvalues --   -7.56749  -1.08570  -1.04445  -1.02744  -0.99685
 Alpha  occ. eigenvalues --   -0.97938  -0.94288  -0.84473  -0.83805  -0.71647
 Alpha  occ. eigenvalues --   -0.71560  -0.63652  -0.60811  -0.56776  -0.55295
 Alpha  occ. eigenvalues --   -0.55031  -0.52849  -0.51161  -0.49150  -0.47689
 Alpha  occ. eigenvalues --   -0.43946  -0.43371  -0.42778  -0.42301  -0.41349
 Alpha  occ. eigenvalues --   -0.41188  -0.39313  -0.38518  -0.35658  -0.32686
 Alpha  occ. eigenvalues --   -0.31243
 Alpha virt. eigenvalues --   -0.03408  -0.02827  -0.00044   0.01719   0.01831
 Alpha virt. eigenvalues --    0.02820   0.04040   0.04432   0.04764   0.05730
 Alpha virt. eigenvalues --    0.06099   0.06334   0.07103   0.07268   0.08690
 Alpha virt. eigenvalues --    0.08802   0.09956   0.10068   0.10189   0.10511
 Alpha virt. eigenvalues --    0.10915   0.10926   0.12298   0.12853   0.13110
 Alpha virt. eigenvalues --    0.13534   0.15224   0.15587   0.15635   0.15757
 Alpha virt. eigenvalues --    0.15868   0.16282   0.16901   0.17921   0.18580
 Alpha virt. eigenvalues --    0.19405   0.19738   0.21297   0.21705   0.22438
 Alpha virt. eigenvalues --    0.22890   0.23607   0.23807   0.24295   0.25402
 Alpha virt. eigenvalues --    0.26656   0.27169   0.27291   0.28615   0.28693
 Alpha virt. eigenvalues --    0.29197   0.30004   0.30605   0.32103   0.40579
 Alpha virt. eigenvalues --    0.41373   0.43392   0.43770   0.45543   0.45543
 Alpha virt. eigenvalues --    0.46915   0.48508   0.48591   0.49419   0.49588
 Alpha virt. eigenvalues --    0.49721   0.49739   0.50855   0.51435   0.52586
 Alpha virt. eigenvalues --    0.53226   0.55792   0.59388   0.60261   0.60504
 Alpha virt. eigenvalues --    0.62345   0.63245   0.63758   0.65352   0.65616
 Alpha virt. eigenvalues --    0.66251   0.68353   0.68645   0.70243   0.75530
 Alpha virt. eigenvalues --    0.77638   0.82070   0.84350   0.85712   0.86607
 Alpha virt. eigenvalues --    0.86757   0.86916   0.87601   0.88527   0.88717
 Alpha virt. eigenvalues --    0.89215   0.90379   0.90399   0.90474   0.92239
 Alpha virt. eigenvalues --    0.93613   0.93768   0.94172   0.96035   0.96151
 Alpha virt. eigenvalues --    0.96916   0.97188   0.98235   0.99098   1.00459
 Alpha virt. eigenvalues --    1.02251   1.03199   1.05535   1.06699   1.06827
 Alpha virt. eigenvalues --    1.11217   1.15709   1.20926   1.22340   1.24311
 Alpha virt. eigenvalues --    1.25814   1.27082   1.28112   1.30965   1.32268
 Alpha virt. eigenvalues --    1.33016   1.33152   1.34282   1.35250   1.36287
 Alpha virt. eigenvalues --    1.46532   1.47177   1.48801   1.54899   1.70778
 Alpha virt. eigenvalues --    1.70820   1.76730   1.79419   1.79714   1.79970
 Alpha virt. eigenvalues --    1.83202   1.84745   1.86133   1.91514   1.97464
 Alpha virt. eigenvalues --    2.10116   2.11393   2.19553   2.21967   2.25213
 Alpha virt. eigenvalues --    2.25976   2.27087   2.27190   2.28315   2.30575
 Alpha virt. eigenvalues --    2.33678   2.34303   2.34439   2.39940   2.40965
 Alpha virt. eigenvalues --    2.42493   2.48580   2.48802   2.49427   2.51481
 Alpha virt. eigenvalues --    2.56233   2.58912   2.64374   2.65772   2.66211
 Alpha virt. eigenvalues --    2.77861   2.80133   2.88816   2.91259   2.91371
 Alpha virt. eigenvalues --    3.03253   3.08697   3.10701   3.19766   3.20907
 Alpha virt. eigenvalues --    3.25565   3.30041   3.47476   3.61000   3.70504
 Alpha virt. eigenvalues --    3.92414   3.94109   4.73796   9.88418   9.97416
 Alpha virt. eigenvalues --    9.98643  10.00390  10.01202  23.29911  23.80323
 Alpha virt. eigenvalues --   23.84133  23.95582  23.95735  24.14087  25.85273
 Alpha virt. eigenvalues --   25.88356  25.91278  25.94630  26.00982  26.14020
 Alpha virt. eigenvalues --   26.15630  26.21893  26.26721  26.36718  26.43634
 Alpha virt. eigenvalues --   26.63429  26.73851  26.89119  27.02541 215.97635
 Alpha virt. eigenvalues --  216.07693 216.09151 216.11328 216.12319
  Beta  occ. eigenvalues -- -102.70993-102.70993-102.70846-102.70846-102.70616
  Beta  occ. eigenvalues --  -10.65731 -10.65716 -10.65582 -10.65448 -10.65447
  Beta  occ. eigenvalues --  -10.61179  -9.85341  -9.85340  -9.85198  -9.85198
  Beta  occ. eigenvalues --   -9.84962  -7.57843  -7.57843  -7.57709  -7.57709
  Beta  occ. eigenvalues --   -7.57491  -7.57171  -7.57171  -7.57124  -7.57124
  Beta  occ. eigenvalues --   -7.57025  -7.57025  -7.56984  -7.56984  -7.56799
  Beta  occ. eigenvalues --   -7.56751  -1.08221  -1.04274  -1.02409  -0.99525
  Beta  occ. eigenvalues --   -0.97809  -0.93550  -0.83493  -0.83115  -0.71295
  Beta  occ. eigenvalues --   -0.70161  -0.63013  -0.60121  -0.56275  -0.54976
  Beta  occ. eigenvalues --   -0.54795  -0.52396  -0.50781  -0.49146  -0.47424
  Beta  occ. eigenvalues --   -0.43923  -0.42750  -0.42404  -0.42259  -0.41060
  Beta  occ. eigenvalues --   -0.40915  -0.38754  -0.38453  -0.31664  -0.31301
  Beta virt. eigenvalues --   -0.10287  -0.03465  -0.01742   0.00126   0.01209
  Beta virt. eigenvalues --    0.01840   0.03129   0.04020   0.04236   0.04640
  Beta virt. eigenvalues --    0.05016   0.06134   0.06413   0.06877   0.07095
  Beta virt. eigenvalues --    0.08688   0.08772   0.09749   0.10127   0.10153
  Beta virt. eigenvalues --    0.10387   0.10619   0.11049   0.12294   0.12849
  Beta virt. eigenvalues --    0.13447   0.13599   0.15544   0.15550   0.15566
  Beta virt. eigenvalues --    0.15618   0.16039   0.16316   0.16909   0.17910
  Beta virt. eigenvalues --    0.18162   0.19300   0.19582   0.21259   0.21609
  Beta virt. eigenvalues --    0.21990   0.22693   0.23481   0.23788   0.24512
  Beta virt. eigenvalues --    0.25488   0.25886   0.27240   0.27354   0.28603
  Beta virt. eigenvalues --    0.28976   0.29524   0.29830   0.30541   0.32754
  Beta virt. eigenvalues --    0.40598   0.41747   0.42820   0.43407   0.45551
  Beta virt. eigenvalues --    0.45800   0.46997   0.48594   0.48618   0.49377
  Beta virt. eigenvalues --    0.49653   0.49746   0.49879   0.50844   0.51445
  Beta virt. eigenvalues --    0.52114   0.53412   0.53817   0.58337   0.59647
  Beta virt. eigenvalues --    0.60283   0.62272   0.63241   0.64080   0.65275
  Beta virt. eigenvalues --    0.66420   0.67653   0.68220   0.69310   0.69474
  Beta virt. eigenvalues --    0.75695   0.77873   0.82141   0.84476   0.85762
  Beta virt. eigenvalues --    0.86500   0.86822   0.87004   0.87631   0.88503
  Beta virt. eigenvalues --    0.88861   0.89300   0.90333   0.90397   0.90448
  Beta virt. eigenvalues --    0.92322   0.93603   0.93887   0.94580   0.95788
  Beta virt. eigenvalues --    0.96157   0.97072   0.97248   0.97835   0.99322
  Beta virt. eigenvalues --    1.00954   1.01970   1.03104   1.05194   1.07175
  Beta virt. eigenvalues --    1.07740   1.11189   1.15508   1.20806   1.22465
  Beta virt. eigenvalues --    1.25026   1.26123   1.27518   1.27709   1.31161
  Beta virt. eigenvalues --    1.32974   1.33009   1.33199   1.34033   1.35753
  Beta virt. eigenvalues --    1.36353   1.46417   1.47599   1.49537   1.57638
  Beta virt. eigenvalues --    1.71034   1.71306   1.77490   1.79369   1.80077
  Beta virt. eigenvalues --    1.80563   1.83851   1.84814   1.86990   1.92315
  Beta virt. eigenvalues --    1.97907   2.11142   2.11564   2.19564   2.22617
  Beta virt. eigenvalues --    2.25227   2.26013   2.27180   2.27599   2.28331
  Beta virt. eigenvalues --    2.30653   2.33704   2.34336   2.34978   2.39896
  Beta virt. eigenvalues --    2.40992   2.42954   2.48939   2.49011   2.49840
  Beta virt. eigenvalues --    2.52104   2.56664   2.58978   2.64505   2.65913
  Beta virt. eigenvalues --    2.66350   2.78386   2.80151   2.89073   2.91063
  Beta virt. eigenvalues --    2.93065   3.05783   3.08744   3.10950   3.19788
  Beta virt. eigenvalues --    3.20908   3.25774   3.30480   3.47986   3.61087
  Beta virt. eigenvalues --    3.70880   3.93165   3.94254   4.74024   9.88429
  Beta virt. eigenvalues --    9.97422   9.98648  10.00398  10.01205  23.30027
  Beta virt. eigenvalues --   23.80454  23.84172  23.95602  23.95741  24.14960
  Beta virt. eigenvalues --   25.85284  25.88381  25.91253  25.94657  26.00990
  Beta virt. eigenvalues --   26.14083  26.15673  26.21960  26.26763  26.36748
  Beta virt. eigenvalues --   26.43720  26.63598  26.73962  26.89275  27.02609
  Beta virt. eigenvalues --  215.97664 216.07738 216.09185 216.11371 216.12333
          Condensed to atoms (all electrons):
               1          2          3          4          5          6
     1  C   17.724554   0.527108  -4.723737   2.131720  -3.242657  -4.466155
     2  C    0.527108  19.348167   0.527119  -7.332700   1.882389  -7.332707
     3  C   -4.723737   0.527119  17.724548  -4.466151  -3.242656   2.131712
     4  C    2.131720  -7.332700  -4.466151  18.460253  -0.932440  -1.732293
     5  C   -3.242657   1.882389  -3.242656  -0.932440  13.175364  -0.932436
     6  C   -4.466155  -7.332707   2.131712  -1.732293  -0.932436  18.460270
     7  Cl  -0.648862  -0.321989   0.421396  -0.323126   0.407838  -0.231236
     8  Cl  -0.437183  -0.283116  -0.443898   0.323370  -0.170541   0.205853
     9  Cl  -0.443898  -0.283114  -0.437181   0.205849  -0.170541   0.323370
    10  Cl   0.421395  -0.321990  -0.648863  -0.231231   0.407837  -0.323127
    11  Cl  -0.091184   0.430155  -0.091184  -0.044734  -0.872538  -0.044732
               7          8          9         10         11
     1  C   -0.648862  -0.437183  -0.443898   0.421395  -0.091184
     2  C   -0.321989  -0.283116  -0.283114  -0.321990   0.430155
     3  C    0.421396  -0.443898  -0.437181  -0.648863  -0.091184
     4  C   -0.323126   0.323370   0.205849  -0.231231  -0.044734
     5  C    0.407838  -0.170541  -0.170541   0.407837  -0.872538
     6  C   -0.231236   0.205853   0.323370  -0.323127  -0.044732
     7  Cl  17.778690  -0.301472  -0.001548   0.013786  -0.358838
     8  Cl  -0.301472  17.602316  -0.034314  -0.001548   0.015600
     9  Cl  -0.001548  -0.034314  17.602315  -0.301472   0.015600
    10  Cl   0.013786  -0.001548  -0.301472  17.778688  -0.358837
    11  Cl  -0.358838   0.015600   0.015600  -0.358837  17.813100
          Atomic-Atomic Spin Densities.
               1          2          3          4          5          6
     1  C   -0.259123   0.069974   0.319057   0.146745  -0.186846  -0.080599
     2  C    0.069974   1.135019   0.069973  -0.384880   0.309746  -0.384882
     3  C    0.319057   0.069973  -0.259123  -0.080598  -0.186847   0.146746
     4  C    0.146745  -0.384880  -0.080598   0.505053  -0.288074   0.230552
     5  C   -0.186846   0.309746  -0.186847  -0.288074   0.563794  -0.288075
     6  C   -0.080599  -0.384882   0.146746   0.230552  -0.288075   0.505056
     7  Cl   0.098461  -0.023641   0.029458   0.043235  -0.101256  -0.065187
     8  Cl  -0.052159  -0.033494  -0.020806  -0.016798   0.059151   0.051947
     9  Cl  -0.020806  -0.033494  -0.052158   0.051947   0.059151  -0.016797
    10  Cl   0.029458  -0.023641   0.098461  -0.065187  -0.101256   0.043235
    11  Cl  -0.034640   0.000723  -0.034640  -0.006840   0.085955  -0.006840
               7          8          9         10         11
     1  C    0.098461  -0.052159  -0.020806   0.029458  -0.034640
     2  C   -0.023641  -0.033494  -0.033494  -0.023641   0.000723
     3  C    0.029458  -0.020806  -0.052158   0.098461  -0.034640
     4  C    0.043235  -0.016798   0.051947  -0.065187  -0.006840
     5  C   -0.101256   0.059151   0.059151  -0.101256   0.085955
     6  C   -0.065187   0.051947  -0.016797   0.043235  -0.006840
     7  Cl   0.081333  -0.039209  -0.002302   0.005373  -0.011726
     8  Cl  -0.039209   0.054168   0.003695  -0.002302   0.005103
     9  Cl  -0.002302   0.003695   0.054168  -0.039209   0.005103
    10  Cl   0.005373  -0.002302  -0.039209   0.081333  -0.011726
    11  Cl  -0.011726   0.005103   0.005103  -0.011726   0.005647
 Mulliken charges and spin densities:
               1          2
     1  C   -0.751102   0.029524
     2  C   -0.839323   0.701404
     3  C   -0.751103   0.029524
     4  C   -0.058516   0.135154
     5  C   -0.309622  -0.074558
     6  C   -0.058519   0.135155
     7  Cl   0.565362   0.014539
     8  Cl   0.524934   0.009299
     9  Cl   0.524934   0.009299
    10  Cl   0.565362   0.014539
    11  Cl   0.587593  -0.003879
 Sum of Mulliken charges =  -0.00000   1.00000
 Mulliken charges and spin densities with hydrogens summed into heavy atoms:
               1          2
     1  C   -0.751102   0.029524
     2  C   -0.839323   0.701404
     3  C   -0.751103   0.029524
     4  C   -0.058516   0.135154
     5  C   -0.309622  -0.074558
     6  C   -0.058519   0.135155
     7  Cl   0.565362   0.014539
     8  Cl   0.524934   0.009299
     9  Cl   0.524934   0.009299
    10  Cl   0.565362   0.014539
    11  Cl   0.587593  -0.003879
 Electronic spatial extent (au):  <R**2>=           3317.0028
 Charge=             -0.0000 electrons
 Dipole moment (field-independent basis, Debye):
    X=             -0.1478    Y=              0.0000    Z=              0.0000  Tot=              0.1478
 Quadrupole moment (field-independent basis, Debye-Ang):
   XX=            -95.7403   YY=            -94.9010   ZZ=            -97.2028
   XY=              0.0000   XZ=              0.0000   YZ=              0.0000
 Traceless Quadrupole moment (field-independent basis, Debye-Ang):
   XX=              0.2077   YY=              1.0471   ZZ=             -1.2548
   XY=              0.0000   XZ=              0.0000   YZ=              0.0000
 Octapole moment (field-independent basis, Debye-Ang**2):
  XXX=             15.0123  YYY=              0.0000  ZZZ=              0.0000  XYY=              1.5068
  XXY=              0.0000  XXZ=              0.0000  XZZ=              2.7757  YZZ=              0.0000
  YYZ=              0.0000  XYZ=              0.0000
 Hexadecapole moment (field-independent basis, Debye-Ang**3):
 XXXX=          -1640.4076 YYYY=          -2345.2959 ZZZZ=           -111.1180 XXXY=             -0.0001
 XXXZ=              0.0000 YYYX=             -0.0001 YYYZ=              0.0000 ZZZX=              0.0000
 ZZZY=              0.0000 XXYY=           -645.2868 XXZZ=           -305.5924 YYZZ=           -435.8931
 XXYZ=              0.0000 YYXZ=              0.0000 ZZXY=             -0.0000
 N-N= 1.062829271658D+03 E-N=-8.124741671851D+03  KE= 2.524030261862D+03
 Symmetry A'   KE= 2.287739531233D+03
 Symmetry A"   KE= 2.362907306292D+02
 Symmetry A'   SP= 1.000000000000D+00
 Symmetry A"   SP= 3.060551579897D-14
                          Isotropic Fermi Contact Couplings
        Atom                 a.u.       MegaHertz       Gauss      10(-4) cm-1
     1  C(13)             -0.01531     -17.20825      -6.14033      -5.74005
     2  C(13)              0.45253     508.73092     181.52784     169.69437
     3  C(13)             -0.01531     -17.20826      -6.14033      -5.74006
     4  C(13)              0.05187      58.31390      20.80785      19.45142
     5  C(13)             -0.00974     -10.95367      -3.90854      -3.65375
     6  C(13)              0.05187      58.31394      20.80786      19.45144
     7  Cl(35)             0.00463       2.03101       0.72472       0.67747
     8  Cl(35)             0.01624       7.11891       2.54020       2.37461
     9  Cl(35)             0.01624       7.11891       2.54021       2.37461
    10  Cl(35)             0.00463       2.03101       0.72472       0.67747
    11  Cl(35)             0.00037       0.16159       0.05766       0.05390
 --------------------------------------------------------
       Center         ----  Spin Dipole Couplings  ----
                      3XX-RR        3YY-RR        3ZZ-RR
 --------------------------------------------------------
     1   Atom        0.013159      0.089875     -0.103034
     2   Atom        0.963639     -0.575923     -0.387716
     3   Atom        0.013159      0.089875     -0.103034
     4   Atom        0.023976     -0.029548      0.005572
     5   Atom        0.037305      0.020227     -0.057532
     6   Atom        0.023976     -0.029548      0.005572
     7   Atom        0.068755     -0.036382     -0.032373
     8   Atom       -0.077403      0.232924     -0.155521
     9   Atom       -0.077403      0.232924     -0.155521
    10   Atom        0.068755     -0.036382     -0.032373
    11   Atom        0.030717      0.019708     -0.050424
 --------------------------------------------------------
                        XY            XZ            YZ
 --------------------------------------------------------
     1   Atom        0.054685      0.000000      0.000000
     2   Atom        0.000000      0.000000      0.000000
     3   Atom       -0.054684      0.000000      0.000000
     4   Atom       -0.001127      0.000000      0.000000
     5   Atom       -0.000000      0.000000      0.000000
     6   Atom        0.001127      0.000000      0.000000
     7   Atom        0.076293      0.000000      0.000000
     8   Atom       -0.032386      0.000000      0.000000
     9   Atom        0.032386      0.000000      0.000000
    10   Atom       -0.076293      0.000000      0.000000
    11   Atom       -0.000000      0.000000      0.000000
 --------------------------------------------------------


 ---------------------------------------------------------------------------------
              Anisotropic Spin Dipole Couplings in Principal Axis System
 ---------------------------------------------------------------------------------

       Atom             a.u.   MegaHertz   Gauss  10(-4) cm-1        Axes

              Baa    -0.1030   -13.826    -4.934    -4.612  0.0000  0.0000  1.0000
     1 C(13)  Bbb    -0.0153    -2.050    -0.732    -0.684  0.8872 -0.4614 -0.0000
              Bcc     0.1183    15.877     5.665     5.296  0.4614  0.8872  0.0000
 
              Baa    -0.5759   -77.283   -27.577   -25.779 -0.0000  1.0000 -0.0000
     2 C(13)  Bbb    -0.3877   -52.028   -18.565   -17.355  0.0000  0.0000  1.0000
              Bcc     0.9636   129.311    46.141    43.134  1.0000  0.0000  0.0000
 
              Baa    -0.1030   -13.826    -4.934    -4.612  0.0000  0.0000  1.0000
     3 C(13)  Bbb    -0.0153    -2.050    -0.732    -0.684  0.8872  0.4614  0.0000
              Bcc     0.1183    15.877     5.665     5.296 -0.4614  0.8872  0.0000
 
              Baa    -0.0296    -3.968    -1.416    -1.324  0.0210  0.9998  0.0000
     4 C(13)  Bbb     0.0056     0.748     0.267     0.249  0.0000  0.0000  1.0000
              Bcc     0.0240     3.221     1.149     1.074  0.9998 -0.0210 -0.0000
 
              Baa    -0.0575    -7.720    -2.755    -2.575  0.0000  0.0000  1.0000
     5 C(13)  Bbb     0.0202     2.714     0.969     0.905  0.0000  1.0000  0.0000
              Bcc     0.0373     5.006     1.786     1.670  1.0000 -0.0000 -0.0000
 
              Baa    -0.0296    -3.968    -1.416    -1.324 -0.0210  0.9998  0.0000
     6 C(13)  Bbb     0.0056     0.748     0.267     0.249  0.0000  0.0000  1.0000
              Bcc     0.0240     3.221     1.149     1.074  0.9998  0.0210  0.0000
 
              Baa    -0.0765    -4.002    -1.428    -1.335 -0.4651  0.8853 -0.0000
     7 Cl(35) Bbb    -0.0324    -1.694    -0.605    -0.565  0.0000  0.0000  1.0000
              Bcc     0.1088     5.696     2.033     1.900  0.8853  0.4651  0.0000
 
              Baa    -0.1555    -8.140    -2.904    -2.715  0.0000  0.0000  1.0000
     8 Cl(35) Bbb    -0.0807    -4.226    -1.508    -1.410  0.9947  0.1027  0.0000
              Bcc     0.2363    12.366     4.412     4.125 -0.1027  0.9947  0.0000
 
              Baa    -0.1555    -8.140    -2.904    -2.715  0.0000  0.0000  1.0000
     9 Cl(35) Bbb    -0.0807    -4.226    -1.508    -1.410  0.9947 -0.1027 -0.0000
              Bcc     0.2363    12.366     4.412     4.125  0.1027  0.9947  0.0000
 
              Baa    -0.0765    -4.002    -1.428    -1.335  0.4651  0.8853  0.0000
    10 Cl(35) Bbb    -0.0324    -1.694    -0.605    -0.565  0.0000  0.0000  1.0000
              Bcc     0.1088     5.696     2.033     1.900  0.8853 -0.4651 -0.0000
 
              Baa    -0.0504    -2.639    -0.942    -0.880  0.0000  0.0000  1.0000
    11 Cl(35) Bbb     0.0197     1.031     0.368     0.344  0.0000  1.0000  0.0000
              Bcc     0.0307     1.608     0.574     0.536  1.0000 -0.0000 -0.0000
 

 ---------------------------------------------------------------------------------

 Calling FoFJK, ICntrl=      2127 FMM=F ISym2X=1 I1Cent= 0 IOpClX= 1 NMat=1 NMatS=1 NMatT=0.
 ***** Axes restored to original set *****
 -------------------------------------------------------------------
 Center     Atomic                   Forces (Hartrees/Bohr)
 Number     Number              X              Y              Z
 -------------------------------------------------------------------
      1        6           0.034294803   -0.026803167    0.000000000
      2        6          -0.000135482    0.004933407   -0.000000000
      3        6          -0.032771520   -0.028645508   -0.000000000
      4        6          -0.023648494    0.017294704   -0.000000000
      5        6          -0.000699943    0.025482602   -0.000000000
      6        6           0.022663264    0.018566983   -0.000000000
      7       17          -0.016792286   -0.010074480   -0.000000000
      8       17          -0.020128051    0.012641063   -0.000000000
      9       17           0.019403614    0.013726979   -0.000000000
     10       17           0.017319946   -0.009137375    0.000000000
     11       17           0.000494149   -0.017985207    0.000000000
 -------------------------------------------------------------------
 Cartesian Forces:  Max     0.034294803 RMS     0.015954984

 GradGradGradGradGradGradGradGradGradGradGradGradGradGradGradGradGradGrad
 Berny optimization.
 FormGI is forming the generalized inverse of G from B-inverse, IUseBI=4.
 Internal  Forces:  Max     0.023766070 RMS     0.008038855
 Search for a local minimum.
 Step number   1 out of a maximum of   57
 All quantities printed in internal units (Hartrees-Bohrs-Radians)
 Mixed Optimization -- RFO/linear search
 Second derivative matrix not updated -- first step.
 ITU=  0
     Eigenvalues ---    0.01839   0.01843   0.01858   0.01873   0.01902
     Eigenvalues ---    0.01997   0.02049   0.02350   0.25000   0.25000
     Eigenvalues ---    0.25000   0.25000   0.25000   0.25000   0.25000
     Eigenvalues ---    0.25000   0.37096   0.37885   0.37885   0.38791
     Eigenvalues ---    0.38791   0.39849   0.41070   0.42346   0.42914
     Eigenvalues ---    0.48626   0.50002
 RFO step:  Lambda=-7.80873209D-03 EMin= 1.83887582D-02
 Linear search not attempted -- first point.
 Iteration  1 RMS(Cart)=  0.01370855 RMS(Int)=  0.00011171
 Iteration  2 RMS(Cart)=  0.00013177 RMS(Int)=  0.00002478
 Iteration  3 RMS(Cart)=  0.00000002 RMS(Int)=  0.00002478
 ClnCor:  largest displacement from symmetrization is 2.81D-09 for atom    11.
 Variable       Old X    -DE/DX   Delta X   Delta X   Delta X     New X
                                 (Linear)    (Quad)   (Total)
    R1        2.59464  -0.00882   0.00000  -0.01733  -0.01730   2.57734
    R2        2.68485  -0.01209   0.00000  -0.02803  -0.02803   2.65682
    R3        3.16929   0.02377   0.00000   0.06006   0.06006   3.22935
    R4        2.59464  -0.00882   0.00000  -0.01734  -0.01730   2.57734
    R5        2.68485  -0.01209   0.00000  -0.02803  -0.02803   2.65682
    R6        3.16930   0.02377   0.00000   0.06006   0.06006   3.22935
    R7        2.67639  -0.00965   0.00000  -0.02192  -0.02196   2.65444
    R8        3.18233   0.01958   0.00000   0.05064   0.05064   3.23297
    R9        2.67639  -0.00965   0.00000  -0.02192  -0.02196   2.65444
   R10        3.19402   0.01799   0.00000   0.04750   0.04750   3.24152
   R11        3.18233   0.01958   0.00000   0.05064   0.05064   3.23297
    A1        2.00734   0.00560   0.00000   0.02154   0.02157   2.02890
    A2        2.12693  -0.00332   0.00000  -0.01280  -0.01281   2.11412
    A3        2.14892  -0.00228   0.00000  -0.00874  -0.00876   2.14016
    A4        2.26099  -0.00895   0.00000  -0.03519  -0.03510   2.22589
    A5        2.00734   0.00560   0.00000   0.02154   0.02157   2.02890
    A6        2.12693  -0.00332   0.00000  -0.01280  -0.01281   2.11412
    A7        2.14892  -0.00228   0.00000  -0.00874  -0.00876   2.14016
    A8        2.08359  -0.00002   0.00000   0.00013   0.00009   2.08369
    A9        2.09126  -0.00034   0.00000  -0.00143  -0.00141   2.08985
   A10        2.10833   0.00036   0.00000   0.00130   0.00132   2.10965
   A11        2.12353  -0.00220   0.00000  -0.00815  -0.00822   2.11531
   A12        2.07983   0.00110   0.00000   0.00407   0.00411   2.08394
   A13        2.07983   0.00110   0.00000   0.00407   0.00411   2.08394
   A14        2.08359  -0.00002   0.00000   0.00013   0.00009   2.08369
   A15        2.09126  -0.00034   0.00000  -0.00143  -0.00141   2.08985
   A16        2.10833   0.00036   0.00000   0.00130   0.00132   2.10965
    D1        0.00000   0.00000   0.00000   0.00000   0.00000   0.00000
    D2        3.14159  -0.00000   0.00000  -0.00000   0.00000   3.14159
    D3        0.00000  -0.00000   0.00000  -0.00000   0.00000   0.00000
    D4        3.14159  -0.00000   0.00000  -0.00000   0.00000   3.14159
    D5        3.14159   0.00000   0.00000   0.00000   0.00000   3.14159
    D6        0.00000  -0.00000   0.00000   0.00000   0.00000   0.00000
    D7        0.00000   0.00000   0.00000  -0.00000   0.00000   0.00000
    D8        3.14159   0.00000   0.00000   0.00000   0.00000   3.14159
    D9        0.00000  -0.00000   0.00000   0.00000   0.00000   0.00000
   D10        3.14159  -0.00000   0.00000   0.00000   0.00000   3.14159
   D11        3.14159  -0.00000   0.00000  -0.00000   0.00000   3.14159
   D12        0.00000  -0.00000   0.00000  -0.00000   0.00000   0.00000
   D13        0.00000   0.00000   0.00000   0.00000   0.00000   0.00000
   D14        3.14159   0.00000   0.00000   0.00000   0.00000   3.14159
   D15        3.14159  -0.00000   0.00000  -0.00000   0.00000   3.14159
   D16        0.00000   0.00000   0.00000   0.00000   0.00000   0.00000
   D17        0.00000  -0.00000   0.00000   0.00000   0.00000   0.00000
   D18        3.14159   0.00000   0.00000   0.00000   0.00000   3.14159
   D19        3.14159  -0.00000   0.00000  -0.00000   0.00000   3.14159
   D20        0.00000   0.00000   0.00000  -0.00000   0.00000   0.00000
         Item               Value     Threshold  Converged?
 Maximum Force            0.023766     0.000450     NO 
 RMS     Force            0.008039     0.000300     NO 
 Maximum Displacement     0.035711     0.001800     NO 
 RMS     Displacement     0.013725     0.001200     NO 
 Predicted change in Energy=-3.984389D-03
 GradGradGradGradGradGradGradGradGradGradGradGradGradGradGradGradGradGrad

                          Input orientation:                          
 ---------------------------------------------------------------------
 Center     Atomic      Atomic             Coordinates (Angstroms)
 Number     Number       Type             X           Y           Z
 ---------------------------------------------------------------------
      1          6           0       -3.214823    0.188058    0.000000
      2          6           0       -2.008443    0.824288    0.000000
      3          6           0       -0.768952    0.255250    0.000000
      4          6           0       -0.729986   -1.150137    0.000000
      5          6           0       -1.934343   -1.873060    0.000000
      6          6           0       -3.176573   -1.217348    0.000000
      7         17           0       -4.638417   -2.106108    0.000000
      8         17           0       -4.678662    1.069826    0.000000
      9         17           0        0.644269    1.216054    0.000000
     10         17           0        0.778447   -1.957300    0.000000
     11         17           0       -1.887238   -3.587753    0.000000
 ---------------------------------------------------------------------
                    Distance matrix (angstroms):
                    1          2          3          4          5
     1  C    0.000000
     2  C    1.363870   0.000000
     3  C    2.446794   1.363870   0.000000
     4  C    2.822265   2.352192   1.405927   0.000000
     5  C    2.426487   2.698365   2.426486   1.404668   0.000000
     6  C    1.405927   2.352192   2.822265   2.447510   1.404668
     7  Cl   2.699967   3.937510   4.533075   4.023645   2.714098
     8  Cl   1.708900   2.681484   3.993666   4.529931   4.023911
     9  Cl   3.993666   2.681484   1.708900   2.736318   4.023911
    10  Cl   4.533075   3.937511   2.699967   1.710814   2.714098
    11  Cl   4.002404   4.413706   4.002403   2.698371   1.715340
                    6          7          8          9         10
     6  C    0.000000
     7  Cl   1.710814   0.000000
     8  Cl   2.736318   3.176189   0.000000
     9  Cl   4.529931   6.240476   5.324939   0.000000
    10  Cl   4.023645   5.418908   6.240476   3.176190   0.000000
    11  Cl   2.698371   3.124782   5.430018   5.430017   3.124781
                   11
    11  Cl   0.000000
 Stoichiometry    C6Cl5(2)
 Framework group  CS[SG(C6Cl5)]
 Deg. of freedom    19
 Full point group                 CS      NOp   2
 Largest Abelian subgroup         CS      NOp   2
 Largest concise Abelian subgroup C1      NOp   1
                         Standard orientation:                         
 ---------------------------------------------------------------------
 Center     Atomic      Atomic             Coordinates (Angstroms)
 Number     Number       Type             X           Y           Z
 ---------------------------------------------------------------------
      1          6           0       -1.123296    1.223397    0.000000
      2          6           0       -1.726158    0.000000    0.000000
      3          6           0       -1.123296   -1.223397    0.000000
      4          6           0        0.282630   -1.223755    0.000000
      5          6           0        0.972208   -0.000000    0.000000
      6          6           0        0.282630    1.223755    0.000000
      7         17           0        1.130912    2.709454    0.000000
      8         17           0       -2.044930    2.662469    0.000000
      9         17           0       -2.044930   -2.662469    0.000000
     10         17           0        1.130912   -2.709454    0.000000
     11         17           0        2.687548   -0.000000    0.000000
 ---------------------------------------------------------------------
 Rotational constants (GHZ):           0.7080309           0.4674866           0.2815738
 Standard basis: 6-311++G(d,p) (5D, 7F)
 There are   217 symmetry adapted cartesian basis functions of A'  symmetry.
 There are    76 symmetry adapted cartesian basis functions of A"  symmetry.
 There are   206 symmetry adapted basis functions of A'  symmetry.
 There are    76 symmetry adapted basis functions of A"  symmetry.
   282 basis functions,   481 primitive gaussians,   293 cartesian basis functions
    61 alpha electrons       60 beta electrons
       nuclear repulsion energy      1058.8171524240 Hartrees.
 NAtoms=   11 NActive=   11 NUniq=   11 SFac= 1.00D+00 NAtFMM=   60 NAOKFM=F Big=F
 Integral buffers will be    131072 words long.
 Raffenetti 2 integral format.
 Two-electron integral symmetry is turned on.
 One-electron integrals computed using PRISM.
 NBasis=   282 RedAO= T EigKep=  2.26D-06  NBF=   206    76
 NBsUse=   280 1.00D-06 EigRej=  4.33D-07 NBFU=   204    76
 Initial guess from the checkpoint file:  "frequency_chks/123456-12_456-ClBzNeutralRadical_Freq.chk"
 B after Tr=     0.000000    0.000000   -0.000000
         Rot=    1.000000   -0.000000    0.000000   -0.000000 Ang=   0.00 deg.
 Initial guess orbital symmetries:
 Alpha Orbitals:
       Occupied  (A') (A') (A') (A') (A') (A') (A') (A') (A') (A')
                 (A') (A') (A') (A') (A') (A') (A') (A') (A') (A')
                 (A') (A") (A") (A') (A') (A") (A") (A') (A') (A")
                 (A') (A') (A') (A') (A') (A') (A') (A') (A') (A')
                 (A') (A') (A') (A') (A") (A') (A') (A') (A") (A")
                 (A") (A') (A") (A') (A') (A') (A") (A') (A') (A")
                 (A")
       Virtual   (A") (A") (A') (A') (A') (A') (A') (A') (A") (A')
                 (A') (A') (A") (A") (A') (A') (A") (A') (A") (A')
                 (A') (A") (A') (A') (A') (A") (A") (A") (A') (A')
                 (A') (A') (A") (A') (A') (A') (A") (A') (A') (A')
                 (A') (A") (A') (A') (A') (A') (A') (A') (A') (A')
                 (A') (A') (A') (A') (A') (A') (A") (A') (A") (A')
                 (A") (A') (A') (A') (A') (A") (A') (A") (A') (A')
                 (A") (A') (A") (A") (A') (A") (A") (A') (A') (A')
                 (A') (A") (A') (A') (A") (A') (A") (A') (A") (A')
                 (A') (A') (A") (A') (A") (A') (A") (A") (A') (A")
                 (A') (A") (A') (A') (A') (A') (A') (A') (A') (A")
                 (A') (A') (A') (A") (A') (A') (A') (A') (A') (A")
                 (A') (A') (A') (A") (A") (A') (A') (A') (A") (A")
                 (A') (A') (A') (A') (A') (A') (A") (A") (A') (A')
                 (A') (A") (A') (A") (A") (A') (A') (A') (A') (A")
                 (A") (A') (A") (A") (A") (A') (A") (A') (A') (A')
                 (A') (A') (A') (A') (A') (A') (A') (A") (A') (A')
                 (A") (A") (A") (A") (A') (A') (A") (A') (A') (A')
                 (A') (A') (A') (A') (A') (A') (A') (A') (A') (A')
                 (A') (A') (A') (A') (A') (A') (A') (A') (A') (A")
                 (A") (A") (A") (A") (A') (A') (A') (A') (A') (A')
                 (A') (A') (A') (A') (A') (A') (A') (A') (A')
 Beta  Orbitals:
       Occupied  (A') (A') (A') (A') (A') (A') (A') (A') (A') (A')
                 (A') (A') (A') (A') (A') (A') (A') (A') (A') (A')
                 (A') (A") (A") (A') (A') (A") (A") (A') (A') (A")
                 (A') (A') (A') (A') (A') (A') (A') (A') (A') (A')
                 (A') (A') (A') (A') (A") (A') (A') (A') (A") (A")
                 (A") (A") (A') (A') (A') (A') (A") (A') (A") (A")
       Virtual   (A') (A") (A") (A') (A') (A') (A') (A') (A') (A")
                 (A') (A') (A') (A") (A") (A') (A') (A") (A') (A")
                 (A') (A') (A") (A') (A') (A') (A") (A') (A") (A')
                 (A") (A') (A') (A") (A') (A') (A') (A") (A') (A')
                 (A') (A') (A") (A') (A') (A') (A') (A') (A') (A')
                 (A') (A') (A') (A') (A') (A') (A') (A') (A") (A")
                 (A') (A") (A') (A') (A') (A') (A") (A') (A") (A')
                 (A') (A") (A') (A') (A") (A") (A") (A") (A') (A')
                 (A') (A') (A") (A') (A') (A") (A') (A") (A') (A")
                 (A') (A') (A') (A") (A') (A") (A') (A') (A") (A")
                 (A") (A') (A") (A') (A') (A') (A') (A') (A') (A')
                 (A") (A') (A') (A') (A") (A') (A') (A') (A') (A')
                 (A') (A") (A') (A') (A") (A") (A') (A') (A') (A")
                 (A") (A') (A') (A') (A') (A') (A') (A") (A") (A')
                 (A') (A') (A") (A') (A") (A") (A') (A') (A') (A')
                 (A") (A") (A') (A") (A") (A") (A') (A") (A') (A')
                 (A') (A') (A') (A') (A') (A') (A') (A') (A") (A')
                 (A') (A") (A") (A") (A") (A') (A') (A") (A') (A')
                 (A') (A') (A') (A') (A') (A') (A') (A') (A') (A')
                 (A') (A') (A') (A') (A') (A') (A') (A') (A') (A')
                 (A") (A") (A") (A") (A") (A') (A') (A') (A') (A')
                 (A') (A') (A') (A') (A') (A') (A') (A') (A') (A')
 Initial guess <Sx>= 0.0000 <Sy>= 0.0000 <Sz>= 0.5000 <S**2>= 0.7639 S= 0.5069
 ExpMin= 4.38D-02 ExpMax= 1.06D+05 ExpMxC= 3.62D+03 IAcc=3 IRadAn=         5 AccDes= 0.00D+00
 Harris functional with IExCor= 1009 and IRadAn=       5 diagonalized for initial guess.
 HarFok:  IExCor= 1009 AccDes= 0.00D+00 IRadAn=         5 IDoV= 1 UseB2=F ITyADJ=14
 ICtDFT=  3500011 ScaDFX=  1.000000  1.000000  1.000000  1.000000
 FoFCou: FMM=F IPFlag=           0 FMFlag=      100000 FMFlg1=           0
         NFxFlg=           0 DoJE=T BraDBF=F KetDBF=T FulRan=T
         wScrn=  0.000000 ICntrl=       500 IOpCl=  0 I1Cent=   200000004 NGrid=           0
         NMat0=    1 NMatS0=      1 NMatT0=    0 NMatD0=    1 NMtDS0=    0 NMtDT0=    0
 Petite list used in FoFCou.
 Requested convergence on RMS density matrix=1.00D-08 within 128 cycles.
 Requested convergence on MAX density matrix=1.00D-06.
 Requested convergence on             energy=1.00D-06.
 No special actions if energy rises.
 SCF Done:  E(UM062X) =  -2529.48941438     A.U. after   16 cycles
            NFock= 16  Conv=0.32D-08     -V/T= 2.0022
 <Sx>= 0.0000 <Sy>= 0.0000 <Sz>= 0.5000 <S**2>= 0.7635 S= 0.5067
 <L.S>=  0.00000000000    
 Annihilation of the first spin contaminant:
 S**2 before annihilation     0.7635,   after     0.7501
 Calling FoFJK, ICntrl=      2127 FMM=F ISym2X=1 I1Cent= 0 IOpClX= 1 NMat=1 NMatS=1 NMatT=0.
 ***** Axes restored to original set *****
 -------------------------------------------------------------------
 Center     Atomic                   Forces (Hartrees/Bohr)
 Number     Number              X              Y              Z
 -------------------------------------------------------------------
      1        6           0.008552678   -0.009916569   -0.000000000
      2        6          -0.000167602    0.006101483   -0.000000000
      3        6          -0.007995327   -0.010371094   -0.000000000
      4        6          -0.004572264    0.004588418    0.000000000
      5        6          -0.000134606    0.004899118    0.000000000
      6        6           0.004313472    0.004832524   -0.000000000
      7       17          -0.003954480   -0.002745125   -0.000000000
      8       17          -0.005812960    0.004347698    0.000000000
      9       17           0.005565485    0.004660259   -0.000000000
     10       17           0.004099262   -0.002523844   -0.000000000
     11       17           0.000106342   -0.003872869   -0.000000000
 -------------------------------------------------------------------
 Cartesian Forces:  Max     0.010371094 RMS     0.004454855

 GradGradGradGradGradGradGradGradGradGradGradGradGradGradGradGradGradGrad
 Berny optimization.
 Using GEDIIS/GDIIS optimizer.
 FormGI is forming the generalized inverse of G from B-inverse, IUseBI=4.
 Internal  Forces:  Max     0.007222715 RMS     0.002179985
 Search for a local minimum.
 Step number   2 out of a maximum of   57
 All quantities printed in internal units (Hartrees-Bohrs-Radians)
 Mixed Optimization -- RFO/linear search
 Update second derivatives using D2CorX and points    1    2
 DE= -4.89D-03 DEPred=-3.98D-03 R= 1.23D+00
 TightC=F SS=  1.41D+00  RLast= 1.43D-01 DXNew= 5.0454D-01 4.2939D-01
 Trust test= 1.23D+00 RLast= 1.43D-01 DXMaxT set to 4.29D-01
 ITU=  1  0
 Use linear search instead of GDIIS.
     Eigenvalues ---    0.01839   0.01843   0.01857   0.01873   0.01902
     Eigenvalues ---    0.01997   0.02049   0.02344   0.21965   0.25000
     Eigenvalues ---    0.25000   0.25000   0.25000   0.25000   0.25000
     Eigenvalues ---    0.25129   0.32025   0.37265   0.37885   0.38306
     Eigenvalues ---    0.38791   0.39780   0.41032   0.42230   0.42912
     Eigenvalues ---    0.49590   0.49967
 RFO step:  Lambda=-1.51952675D-04 EMin= 1.83894941D-02
 Quartic linear search produced a step of  0.37823.
 Iteration  1 RMS(Cart)=  0.00625055 RMS(Int)=  0.00003915
 Iteration  2 RMS(Cart)=  0.00005640 RMS(Int)=  0.00002096
 Iteration  3 RMS(Cart)=  0.00000000 RMS(Int)=  0.00002096
 ClnCor:  largest displacement from symmetrization is 4.10D-09 for atom    11.
 Variable       Old X    -DE/DX   Delta X   Delta X   Delta X     New X
                                 (Linear)    (Quad)   (Total)
    R1        2.57734   0.00002  -0.00654   0.00635  -0.00016   2.57718
    R2        2.65682  -0.00259  -0.01060   0.00146  -0.00914   2.64768
    R3        3.22935   0.00722   0.02272   0.00450   0.02722   3.25657
    R4        2.57734   0.00002  -0.00654   0.00635  -0.00016   2.57718
    R5        2.65682  -0.00259  -0.01060   0.00146  -0.00914   2.64768
    R6        3.22935   0.00722   0.02272   0.00450   0.02722   3.25657
    R7        2.65444  -0.00158  -0.00830   0.00250  -0.00583   2.64861
    R8        3.23297   0.00481   0.01915  -0.00035   0.01881   3.25178
    R9        2.65444  -0.00158  -0.00830   0.00250  -0.00583   2.64861
   R10        3.24152   0.00387   0.01797  -0.00232   0.01565   3.25717
   R11        3.23297   0.00481   0.01915  -0.00035   0.01881   3.25178
    A1        2.02890   0.00232   0.00816   0.00555   0.01373   2.04264
    A2        2.11412  -0.00233  -0.00485  -0.00852  -0.01338   2.10074
    A3        2.14016   0.00001  -0.00331   0.00297  -0.00036   2.13981
    A4        2.22589  -0.00409  -0.01328  -0.00949  -0.02269   2.20320
    A5        2.02890   0.00232   0.00816   0.00555   0.01373   2.04264
    A6        2.11412  -0.00233  -0.00485  -0.00852  -0.01338   2.10074
    A7        2.14016   0.00001  -0.00331   0.00297  -0.00036   2.13981
    A8        2.08369  -0.00011   0.00004  -0.00100  -0.00099   2.08269
    A9        2.08985   0.00053  -0.00053   0.00357   0.00305   2.09290
   A10        2.10965  -0.00042   0.00050  -0.00257  -0.00206   2.10760
   A11        2.11531  -0.00033  -0.00311   0.00038  -0.00279   2.11252
   A12        2.08394   0.00016   0.00155  -0.00019   0.00140   2.08534
   A13        2.08394   0.00016   0.00155  -0.00019   0.00139   2.08533
   A14        2.08369  -0.00011   0.00004  -0.00100  -0.00099   2.08269
   A15        2.08985   0.00053  -0.00053   0.00357   0.00305   2.09290
   A16        2.10965  -0.00042   0.00050  -0.00257  -0.00206   2.10760
    D1        0.00000  -0.00000   0.00000  -0.00000   0.00000   0.00000
    D2        3.14159  -0.00000   0.00000   0.00000   0.00000   3.14159
    D3        0.00000   0.00000   0.00000   0.00000   0.00000   0.00000
    D4        3.14159   0.00000   0.00000   0.00000   0.00000   3.14159
    D5        3.14159  -0.00000   0.00000  -0.00000   0.00000   3.14159
    D6        0.00000  -0.00000   0.00000   0.00000   0.00000   0.00000
    D7        0.00000   0.00000   0.00000   0.00000   0.00000   0.00000
    D8        3.14159   0.00000   0.00000   0.00000   0.00000   3.14159
    D9        0.00000  -0.00000   0.00000   0.00000   0.00000   0.00000
   D10        3.14159   0.00000   0.00000   0.00000   0.00000   3.14159
   D11        3.14159  -0.00000   0.00000   0.00000   0.00000   3.14159
   D12        0.00000  -0.00000   0.00000   0.00000   0.00000   0.00000
   D13        0.00000  -0.00000   0.00000  -0.00000   0.00000   0.00000
   D14        3.14159  -0.00000   0.00000  -0.00000   0.00000   3.14159
   D15        3.14159  -0.00000   0.00000  -0.00000   0.00000   3.14159
   D16        0.00000  -0.00000   0.00000  -0.00000   0.00000   0.00000
   D17        0.00000   0.00000   0.00000   0.00000   0.00000   0.00000
   D18        3.14159   0.00000   0.00000  -0.00000   0.00000   3.14159
   D19        3.14159   0.00000   0.00000   0.00000   0.00000   3.14159
   D20        0.00000  -0.00000   0.00000  -0.00000   0.00000   0.00000
         Item               Value     Threshold  Converged?
 Maximum Force            0.007223     0.000450     NO 
 RMS     Force            0.002180     0.000300     NO 
 Maximum Displacement     0.018554     0.001800     NO 
 RMS     Displacement     0.006253     0.001200     NO 
 Predicted change in Energy=-4.382888D-04
 GradGradGradGradGradGradGradGradGradGradGradGradGradGradGradGradGradGrad

                          Input orientation:                          
 ---------------------------------------------------------------------
 Center     Atomic      Atomic             Coordinates (Angstroms)
 Number     Number       Type             X           Y           Z
 ---------------------------------------------------------------------
      1          6           0       -3.207721    0.184272    0.000000
      2          6           0       -2.008712    0.834106    0.000000
      3          6           0       -0.775835    0.251079    0.000000
      4          6           0       -0.733658   -1.149376    0.000000
      5          6           0       -1.934362   -1.872386    0.000000
      6          6           0       -3.172948   -1.216386    0.000000
      7         17           0       -4.642705   -2.111288    0.000000
      8         17           0       -4.682089    1.076468    0.000000
      9         17           0        0.647327    1.222874    0.000000
     10         17           0        0.783013   -1.962237    0.000000
     11         17           0       -1.887030   -3.595356    0.000000
 ---------------------------------------------------------------------
                    Distance matrix (angstroms):
                    1          2          3          4          5
     1  C    0.000000
     2  C    1.363784   0.000000
     3  C    2.432803   1.363784   0.000000
     4  C    2.810624   2.357958   1.401090   0.000000
     5  C    2.418943   2.707513   2.418943   1.401582   0.000000
     6  C    1.401090   2.357958   2.810624   2.440211   1.401582
     7  Cl   2.707171   3.951362   4.531386   4.025658   2.718859
     8  Cl   1.723304   2.684341   3.992504   4.532604   4.030602
     9  Cl   3.992504   2.684341   1.723304   2.744939   4.030602
    10  Cl   4.531386   3.951362   2.707171   1.720765   2.718860
    11  Cl   4.003725   4.431133   4.003725   2.704272   1.723620
                    6          7          8          9         10
     6  C    0.000000
     7  Cl   1.720765   0.000000
     8  Cl   2.744939   3.188000   0.000000
     9  Cl   4.532604   6.253085   5.331427   0.000000
    10  Cl   4.025658   5.427765   6.253085   3.187999   0.000000
    11  Cl   2.704271   3.129888   5.444107   5.444107   3.129890
                   11
    11  Cl   0.000000
 Stoichiometry    C6Cl5(2)
 Framework group  CS[SG(C6Cl5)]
 Deg. of freedom    19
 Full point group                 CS      NOp   2
 Largest Abelian subgroup         CS      NOp   2
 Largest concise Abelian subgroup C1      NOp   1
                         Standard orientation:                         
 ---------------------------------------------------------------------
 Center     Atomic      Atomic             Coordinates (Angstroms)
 Number     Number       Type             X           Y           Z
 ---------------------------------------------------------------------
      1          6           0       -1.119703    1.216402    0.000000
      2          6           0       -1.736367   -0.000000   -0.000000
      3          6           0       -1.119703   -1.216402   -0.000000
      4          6           0        0.281382   -1.220105   -0.000000
      5          6           0        0.971147    0.000000    0.000000
      6          6           0        0.281382    1.220105    0.000000
      7         17           0        1.135585    2.713882    0.000000
      8         17           0       -2.052051    2.665714    0.000000
      9         17           0       -2.052051   -2.665714   -0.000000
     10         17           0        1.135585   -2.713882   -0.000000
     11         17           0        2.694766    0.000000    0.000000
 ---------------------------------------------------------------------
 Rotational constants (GHZ):           0.7037629           0.4665092           0.2805432
 Standard basis: 6-311++G(d,p) (5D, 7F)
 There are   217 symmetry adapted cartesian basis functions of A'  symmetry.
 There are    76 symmetry adapted cartesian basis functions of A"  symmetry.
 There are   206 symmetry adapted basis functions of A'  symmetry.
 There are    76 symmetry adapted basis functions of A"  symmetry.
   282 basis functions,   481 primitive gaussians,   293 cartesian basis functions
    61 alpha electrons       60 beta electrons
       nuclear repulsion energy      1056.5570406825 Hartrees.
 NAtoms=   11 NActive=   11 NUniq=   11 SFac= 1.00D+00 NAtFMM=   60 NAOKFM=F Big=F
 Integral buffers will be    131072 words long.
 Raffenetti 2 integral format.
 Two-electron integral symmetry is turned on.
 One-electron integrals computed using PRISM.
 NBasis=   282 RedAO= T EigKep=  2.19D-06  NBF=   206    76
 NBsUse=   280 1.00D-06 EigRej=  4.39D-07 NBFU=   204    76
 Initial guess from the checkpoint file:  "frequency_chks/123456-12_456-ClBzNeutralRadical_Freq.chk"
 B after Tr=    -0.000000   -0.000000    0.000000
         Rot=    1.000000    0.000000   -0.000000   -0.000000 Ang=  -0.00 deg.
 Initial guess orbital symmetries:
 Alpha Orbitals:
       Occupied  (A') (A') (A') (A') (A') (A') (A') (A') (A') (A')
                 (A') (A') (A') (A') (A') (A') (A') (A') (A') (A')
                 (A') (A") (A") (A') (A') (A") (A") (A') (A') (A")
                 (A') (A') (A') (A') (A') (A') (A') (A') (A') (A')
                 (A') (A') (A') (A') (A") (A') (A') (A') (A") (A")
                 (A") (A') (A") (A') (A') (A') (A") (A') (A') (A")
                 (A")
       Virtual   (A") (A") (A') (A') (A') (A') (A') (A') (A") (A')
                 (A') (A') (A") (A") (A') (A') (A') (A") (A") (A')
                 (A') (A") (A') (A') (A') (A") (A") (A') (A") (A')
                 (A') (A') (A") (A') (A') (A') (A") (A') (A') (A')
                 (A') (A") (A') (A') (A') (A') (A') (A') (A') (A')
                 (A') (A') (A') (A') (A') (A') (A") (A') (A') (A")
                 (A") (A') (A') (A') (A') (A') (A") (A") (A') (A')
                 (A") (A') (A") (A") (A') (A") (A") (A') (A') (A')
                 (A') (A") (A') (A') (A") (A') (A") (A') (A') (A")
                 (A') (A') (A") (A') (A") (A') (A') (A") (A") (A")
                 (A') (A') (A") (A') (A') (A') (A') (A') (A') (A")
                 (A') (A') (A') (A') (A") (A') (A') (A') (A') (A")
                 (A') (A') (A') (A") (A") (A') (A') (A") (A') (A")
                 (A') (A') (A') (A') (A') (A') (A") (A") (A') (A')
                 (A') (A") (A') (A") (A") (A') (A') (A') (A') (A")
                 (A") (A') (A") (A") (A") (A') (A') (A") (A') (A')
                 (A') (A') (A') (A') (A') (A') (A') (A") (A') (A')
                 (A") (A") (A") (A") (A') (A') (A") (A') (A') (A')
                 (A') (A') (A') (A') (A') (A') (A') (A') (A') (A')
                 (A') (A') (A') (A') (A') (A') (A') (A') (A') (A")
                 (A") (A") (A") (A") (A') (A') (A') (A') (A') (A')
                 (A') (A') (A') (A') (A') (A') (A') (A') (A')
 Beta  Orbitals:
       Occupied  (A') (A') (A') (A') (A') (A') (A') (A') (A') (A')
                 (A') (A') (A') (A') (A') (A') (A') (A') (A') (A')
                 (A') (A") (A") (A') (A') (A") (A") (A') (A') (A")
                 (A') (A') (A') (A') (A') (A') (A') (A') (A') (A')
                 (A') (A') (A') (A') (A") (A') (A') (A') (A") (A")
                 (A") (A') (A") (A') (A') (A') (A") (A') (A") (A")
       Virtual   (A') (A") (A") (A') (A') (A') (A') (A') (A') (A")
                 (A') (A') (A') (A") (A") (A') (A') (A') (A") (A")
                 (A') (A') (A") (A') (A') (A') (A") (A') (A') (A")
                 (A") (A') (A') (A") (A') (A') (A') (A") (A') (A')
                 (A') (A') (A") (A') (A') (A') (A') (A') (A') (A')
                 (A') (A') (A') (A') (A') (A') (A') (A') (A") (A')
                 (A") (A") (A') (A') (A') (A') (A') (A") (A") (A')
                 (A') (A") (A') (A') (A") (A") (A") (A") (A') (A')
                 (A') (A") (A') (A') (A') (A") (A') (A") (A') (A')
                 (A") (A') (A') (A") (A') (A") (A') (A') (A") (A")
                 (A") (A') (A") (A') (A') (A') (A') (A') (A') (A')
                 (A") (A') (A') (A') (A') (A") (A') (A') (A') (A')
                 (A') (A") (A') (A') (A") (A') (A') (A") (A') (A")
                 (A") (A') (A') (A') (A') (A') (A') (A") (A") (A')
                 (A') (A') (A") (A') (A") (A") (A') (A') (A') (A')
                 (A") (A") (A') (A") (A") (A") (A') (A') (A") (A')
                 (A') (A') (A') (A') (A') (A') (A') (A') (A") (A')
                 (A') (A") (A") (A") (A") (A') (A') (A") (A') (A')
                 (A') (A') (A') (A') (A') (A') (A') (A') (A') (A')
                 (A') (A') (A') (A') (A') (A') (A') (A') (A') (A')
                 (A") (A") (A") (A") (A") (A') (A') (A') (A') (A')
                 (A') (A') (A') (A') (A') (A') (A') (A') (A') (A')
 Initial guess <Sx>= 0.0000 <Sy>= 0.0000 <Sz>= 0.5000 <S**2>= 0.7635 S= 0.5067
 Requested convergence on RMS density matrix=1.00D-08 within 128 cycles.
 Requested convergence on MAX density matrix=1.00D-06.
 Requested convergence on             energy=1.00D-06.
 No special actions if energy rises.
 SCF Done:  E(UM062X) =  -2529.48989607     A.U. after   15 cycles
            NFock= 15  Conv=0.67D-08     -V/T= 2.0022
 <Sx>= 0.0000 <Sy>= 0.0000 <Sz>= 0.5000 <S**2>= 0.7636 S= 0.5068
 <L.S>=  0.00000000000    
 Annihilation of the first spin contaminant:
 S**2 before annihilation     0.7636,   after     0.7501
 Calling FoFJK, ICntrl=      2127 FMM=F ISym2X=1 I1Cent= 0 IOpClX= 1 NMat=1 NMatS=1 NMatT=0.
 ***** Axes restored to original set *****
 -------------------------------------------------------------------
 Center     Atomic                   Forces (Hartrees/Bohr)
 Number     Number              X              Y              Z
 -------------------------------------------------------------------
      1        6           0.000329065   -0.001640610   -0.000000000
      2        6          -0.000041606    0.001514003    0.000000000
      3        6          -0.000238492   -0.001656192    0.000000000
      4        6           0.000992848    0.000386139   -0.000000000
      5        6           0.000027595   -0.001003026   -0.000000000
      6        6          -0.001012589    0.000331096    0.000000000
      7       17           0.000228920    0.000357591   -0.000000000
      8       17          -0.000473786    0.000404592    0.000000000
      9       17           0.000450851    0.000429996   -0.000000000
     10       17          -0.000248251    0.000344433    0.000000000
     11       17          -0.000014554    0.000531979   -0.000000000
 -------------------------------------------------------------------
 Cartesian Forces:  Max     0.001656192 RMS     0.000617679

 GradGradGradGradGradGradGradGradGradGradGradGradGradGradGradGradGradGrad
 Berny optimization.
 Using GEDIIS/GDIIS optimizer.
 FormGI is forming the generalized inverse of G from B-inverse, IUseBI=4.
 Internal  Forces:  Max     0.000682088 RMS     0.000321204
 Search for a local minimum.
 Step number   3 out of a maximum of   57
 All quantities printed in internal units (Hartrees-Bohrs-Radians)
 Mixed Optimization -- En-DIIS/RFO-DIIS
 Update second derivatives using D2CorX and points    1    2    3
 DE= -4.82D-04 DEPred=-4.38D-04 R= 1.10D+00
 TightC=F SS=  1.41D+00  RLast= 6.29D-02 DXNew= 7.2215D-01 1.8879D-01
 Trust test= 1.10D+00 RLast= 6.29D-02 DXMaxT set to 4.29D-01
 ITU=  1  1  0
 Use linear search instead of GDIIS.
     Eigenvalues ---    0.01839   0.01843   0.01857   0.01873   0.01902
     Eigenvalues ---    0.01995   0.02046   0.02339   0.19363   0.25000
     Eigenvalues ---    0.25000   0.25000   0.25000   0.25000   0.25043
     Eigenvalues ---    0.25250   0.32181   0.37287   0.37885   0.38538
     Eigenvalues ---    0.38791   0.39754   0.41352   0.42164   0.42911
     Eigenvalues ---    0.49945   0.50251
 RFO step:  Lambda=-1.32062909D-05 EMin= 1.83886004D-02
 Quartic linear search produced a step of  0.05134.
[...]
      8       17          -0.000035457    0.000128557    0.000000000
      9       17           0.000028347    0.000130298   -0.000000000
     10       17          -0.000324144    0.000055302    0.000000000
     11       17          -0.000010825    0.000392451    0.000000000
 -------------------------------------------------------------------
 Cartesian Forces:  Max     0.000411869 RMS     0.000189675
 FormGI is forming the generalized inverse of G from B-inverse, IUseBI=4.

 GradGradGradGradGradGradGradGradGradGradGradGradGradGradGradGradGradGrad
 Berny optimization.
 Internal  Forces:  Max     0.000392601 RMS     0.000120044
 Search for a local minimum.
 Step number   1 out of a maximum of    2
 All quantities printed in internal units (Hartrees-Bohrs-Radians)
 Second derivative matrix not updated -- analytic derivatives used.
 ITU=  0
     Eigenvalues ---    0.01471   0.01523   0.01606   0.02440   0.02844
     Eigenvalues ---    0.02913   0.03649   0.03816   0.14881   0.15365
     Eigenvalues ---    0.16880   0.17092   0.18972   0.19858   0.23361
     Eigenvalues ---    0.25978   0.26077   0.27264   0.28066   0.30559
     Eigenvalues ---    0.30872   0.41021   0.46398   0.48211   0.49841
     Eigenvalues ---    0.51815   0.52452
 Angle between quadratic step and forces=  20.49 degrees.
 Linear search not attempted -- first point.
 Iteration  1 RMS(Cart)=  0.00055698 RMS(Int)=  0.00000015
 Iteration  2 RMS(Cart)=  0.00000026 RMS(Int)=  0.00000003
 ClnCor:  largest displacement from symmetrization is 1.22D-10 for atom    11.
 Variable       Old X    -DE/DX   Delta X   Delta X   Delta X     New X
                                 (Linear)    (Quad)   (Total)
    R1        2.57834   0.00008   0.00000   0.00021   0.00021   2.57856
    R2        2.64619   0.00009   0.00000   0.00000   0.00000   2.64619
    R3        3.25905   0.00010   0.00000   0.00057   0.00057   3.25962
    R4        2.57834   0.00008   0.00000   0.00021   0.00021   2.57856
    R5        2.64619   0.00009   0.00000   0.00000   0.00000   2.64619
    R6        3.25905   0.00010   0.00000   0.00057   0.00057   3.25962
    R7        2.65003  -0.00004   0.00000   0.00017   0.00017   2.65020
    R8        3.25134  -0.00031   0.00000  -0.00127  -0.00127   3.25007
    R9        2.65003  -0.00004   0.00000   0.00017   0.00017   2.65020
   R10        3.25621  -0.00039   0.00000  -0.00145  -0.00145   3.25476
   R11        3.25134  -0.00031   0.00000  -0.00127  -0.00127   3.25007
    A1        2.04481   0.00010   0.00000   0.00084   0.00084   2.04565
    A2        2.09884  -0.00020   0.00000  -0.00106  -0.00106   2.09777
    A3        2.13954   0.00010   0.00000   0.00023   0.00023   2.13977
    A4        2.20012  -0.00018   0.00000  -0.00115  -0.00115   2.19897
    A5        2.04481   0.00010   0.00000   0.00084   0.00084   2.04565
    A6        2.09884  -0.00020   0.00000  -0.00106  -0.00106   2.09777
    A7        2.13954   0.00010   0.00000   0.00023   0.00023   2.13977
    A8        2.08230  -0.00003   0.00000  -0.00030  -0.00030   2.08200
    A9        2.09187   0.00019   0.00000   0.00067   0.00067   2.09253
   A10        2.10902  -0.00015   0.00000  -0.00037  -0.00037   2.10866
   A11        2.11203   0.00004   0.00000   0.00008   0.00008   2.11211
   A12        2.08558  -0.00002   0.00000  -0.00004  -0.00004   2.08554
   A13        2.08558  -0.00002   0.00000  -0.00004  -0.00004   2.08554
   A14        2.08230  -0.00003   0.00000  -0.00030  -0.00030   2.08200
   A15        2.09187   0.00019   0.00000   0.00067   0.00067   2.09253
   A16        2.10902  -0.00015   0.00000  -0.00037  -0.00037   2.10866
    D1        0.00000  -0.00000   0.00000   0.00000   0.00000   0.00000
    D2        3.14159  -0.00000   0.00000   0.00000   0.00000   3.14159
    D3        0.00000   0.00000   0.00000  -0.00000   0.00000   0.00000
    D4        3.14159   0.00000   0.00000  -0.00000   0.00000   3.14159
    D5        3.14159   0.00000   0.00000  -0.00000   0.00000   3.14159
    D6        0.00000   0.00000   0.00000  -0.00000   0.00000   0.00000
    D7        0.00000  -0.00000   0.00000   0.00000   0.00000   0.00000
    D8        3.14159  -0.00000   0.00000   0.00000   0.00000   3.14159
    D9        0.00000   0.00000   0.00000  -0.00000   0.00000   0.00000
   D10        3.14159  -0.00000   0.00000  -0.00000   0.00000   3.14159
   D11        3.14159   0.00000   0.00000  -0.00000   0.00000   3.14159
   D12        0.00000   0.00000   0.00000  -0.00000   0.00000   0.00000
   D13        0.00000   0.00000   0.00000   0.00000   0.00000   0.00000
   D14        3.14159  -0.00000   0.00000   0.00000   0.00000   3.14159
   D15        3.14159   0.00000   0.00000   0.00000   0.00000   3.14159
   D16        0.00000   0.00000   0.00000   0.00000   0.00000   0.00000
   D17        0.00000  -0.00000   0.00000   0.00000   0.00000   0.00000
   D18        3.14159  -0.00000   0.00000   0.00000   0.00000   3.14159
   D19        3.14159   0.00000   0.00000   0.00000   0.00000   3.14159
   D20        0.00000  -0.00000   0.00000   0.00000   0.00000   0.00000
         Item               Value     Threshold  Converged?
 Maximum Force            0.000393     0.000450     YES
 RMS     Force            0.000120     0.000300     YES
 Maximum Displacement     0.001583     0.001800     YES
 RMS     Displacement     0.000557     0.001200     YES
 Predicted change in Energy=-1.365344D-06
 Optimization completed.
    -- Stationary point found.
                           ----------------------------
                           !   Optimized Parameters   !
                           ! (Angstroms and Degrees)  !
 --------------------------                            --------------------------
 ! Name  Definition              Value          Derivative Info.                !
 --------------------------------------------------------------------------------
 ! R1    R(1,2)                  1.3644         -DE/DX =    0.0001              !
 ! R2    R(1,6)                  1.4003         -DE/DX =    0.0001              !
 ! R3    R(1,8)                  1.7246         -DE/DX =    0.0001              !
 ! R4    R(2,3)                  1.3644         -DE/DX =    0.0001              !
 ! R5    R(3,4)                  1.4003         -DE/DX =    0.0001              !
 ! R6    R(3,9)                  1.7246         -DE/DX =    0.0001              !
 ! R7    R(4,5)                  1.4023         -DE/DX =    0.0                 !
 ! R8    R(4,10)                 1.7205         -DE/DX =   -0.0003              !
 ! R9    R(5,6)                  1.4023         -DE/DX =    0.0                 !
 ! R10   R(5,11)                 1.7231         -DE/DX =   -0.0004              !
 ! R11   R(6,7)                  1.7205         -DE/DX =   -0.0003              !
 ! A1    A(2,1,6)              117.1591         -DE/DX =    0.0001              !
 ! A2    A(2,1,8)              120.2544         -DE/DX =   -0.0002              !
 ! A3    A(6,1,8)              122.5865         -DE/DX =    0.0001              !
 ! A4    A(1,2,3)              126.0578         -DE/DX =   -0.0002              !
 ! A5    A(2,3,4)              117.1591         -DE/DX =    0.0001              !
 ! A6    A(2,3,9)              120.2544         -DE/DX =   -0.0002              !
 ! A7    A(4,3,9)              122.5865         -DE/DX =    0.0001              !
 ! A8    A(3,4,5)              119.3067         -DE/DX =    0.0                 !
 ! A9    A(3,4,10)             119.8552         -DE/DX =    0.0002              !
 ! A10   A(5,4,10)             120.8381         -DE/DX =   -0.0002              !
 ! A11   A(4,5,6)              121.0105         -DE/DX =    0.0                 !
 ! A12   A(4,5,11)             119.4947         -DE/DX =    0.0                 !
 ! A13   A(6,5,11)             119.4947         -DE/DX =    0.0                 !
 ! A14   A(1,6,5)              119.3067         -DE/DX =    0.0                 !
 ! A15   A(1,6,7)              119.8552         -DE/DX =    0.0002              !
 ! A16   A(5,6,7)              120.8381         -DE/DX =   -0.0002              !
 ! D1    D(6,1,2,3)              0.0            -DE/DX =    0.0                 !
 ! D2    D(8,1,2,3)            180.0            -DE/DX =    0.0                 !
 ! D3    D(2,1,6,5)              0.0            -DE/DX =    0.0                 !
 ! D4    D(2,1,6,7)            180.0            -DE/DX =    0.0                 !
 ! D5    D(8,1,6,5)            180.0            -DE/DX =    0.0                 !
 ! D6    D(8,1,6,7)              0.0            -DE/DX =    0.0                 !
 ! D7    D(1,2,3,4)              0.0            -DE/DX =    0.0                 !
 ! D8    D(1,2,3,9)            180.0            -DE/DX =    0.0                 !
 ! D9    D(2,3,4,5)              0.0            -DE/DX =    0.0                 !
 ! D10   D(2,3,4,10)           180.0            -DE/DX =    0.0                 !
 ! D11   D(9,3,4,5)            180.0            -DE/DX =    0.0                 !
 ! D12   D(9,3,4,10)             0.0            -DE/DX =    0.0                 !
 ! D13   D(3,4,5,6)              0.0            -DE/DX =    0.0                 !
 ! D14   D(3,4,5,11)           180.0            -DE/DX =    0.0                 !
 ! D15   D(10,4,5,6)           180.0            -DE/DX =    0.0                 !
 ! D16   D(10,4,5,11)            0.0            -DE/DX =    0.0                 !
 ! D17   D(4,5,6,1)              0.0            -DE/DX =    0.0                 !
 ! D18   D(4,5,6,7)            180.0            -DE/DX =    0.0                 !
 ! D19   D(11,5,6,1)           180.0            -DE/DX =    0.0                 !
 ! D20   D(11,5,6,7)             0.0            -DE/DX =    0.0                 !
 --------------------------------------------------------------------------------
 GradGradGradGradGradGradGradGradGradGradGradGradGradGradGradGradGradGrad


 ----------------------------------------------------------------------

 Electric dipole moment (input orientation):
 (Debye = 10**-18 statcoulomb cm , SI units = C m)
                  (au)            (Debye)         (10**-30 SI)
   Tot        0.477711D-01      0.121422D+00      0.405020D+00
   x         -0.131185D-02     -0.333440D-02     -0.111223D-01
   y          0.477531D-01      0.121376D+00      0.404868D+00
   z          0.000000D+00      0.000000D+00      0.000000D+00

 Dipole polarizability, Alpha (input orientation).
 (esu units = cm**3 , SI units = C**2 m**2 J**-1)
 Alpha(0;0):
               (au)            (10**-24 esu)      (10**-40 SI)
   iso        0.127701D+03      0.189234D+02      0.210551D+02
   aniso      0.936776D+02      0.138816D+02      0.154454D+02
   xx         0.171357D+03      0.253924D+02      0.282529D+02
   yx         0.737158D+00      0.109235D+00      0.121541D+00
   yy         0.144543D+03      0.214190D+02      0.238319D+02
   zx         0.000000D+00      0.000000D+00      0.000000D+00
   zy         0.000000D+00      0.000000D+00      0.000000D+00
   zz         0.672048D+02      0.995873D+01      0.110806D+02

 ----------------------------------------------------------------------

 Dipole orientation:
     6         -6.04682770         -0.16611584          0.51219091
     6         -3.74978458         -0.10301246          1.68157446
     6         -1.45274219         -0.03990911          0.51218942
     6         -1.44406438         -0.03967071         -2.13398622
     6         -3.74978616         -0.10301250         -3.43871206
     6         -6.05550725         -0.16635428         -2.13398473
    17         -8.87958039         -0.24393599         -3.74326915
    17         -8.78602819         -0.24136597          2.27642353
    17          1.28645938          0.03534106          2.27642039
    17          1.38000739          0.03791097         -3.74327302
    17         -3.74978662         -0.10301252         -6.69492441

 Electric dipole moment (dipole orientation):
 (Debye = 10**-18 statcoulomb cm , SI units = C m)
                  (au)            (Debye)         (10**-30 SI)
   Tot        0.477711D-01      0.121422D+00      0.405020D+00
   x          0.000000D+00      0.000000D+00      0.000000D+00
   y          0.000000D+00      0.000000D+00      0.000000D+00
   z          0.477711D-01      0.121422D+00      0.405020D+00

 Dipole polarizability, Alpha (dipole orientation).
 (esu units = cm**3 , SI units = C**2 m**2 J**-1)
 Alpha(0;0):
               (au)            (10**-24 esu)      (10**-40 SI)
   iso        0.127701D+03      0.189234D+02      0.210551D+02
   aniso      0.936776D+02      0.138816D+02      0.154454D+02
   xx         0.171298D+03      0.253838D+02      0.282433D+02
   yx         0.285961D+01      0.423750D+00      0.471486D+00
   yy         0.672834D+02      0.997037D+01      0.110935D+02
   zx        -0.116992D-04     -0.173365D-05     -0.192895D-05
   zy         0.000000D+00      0.000000D+00      0.000000D+00
   zz         0.144523D+03      0.214160D+02      0.238286D+02

 ----------------------------------------------------------------------
 1\1\GINC-SH02-01N33\Freq\UM062X\6-311++G(d,p)\C6Cl5(2)\JLAPIER\10-Dec-
 2025\0\\#N Geom=AllCheck Guess=TCheck SCRF=Check GenChk UM062X/6-311++
 G(d,p) Freq\\Neutral Radical (removed 3) 12_456\\0,2\C,-3.2072864943,0
 .1830328255,0.\C,-2.008736923,0.8350034477,0.\C,-0.7762011194,0.249817
 7619,0.\C,-0.7331552036,-1.1498238351,0.\C,-1.9343305522,-1.8735136685
 ,0.\C,-3.1734257006,-1.2168611011,0.\Cl,-4.6444749767,-2.1091910596,0.
 \Cl,-4.6824465246,1.0764517835,0.\Cl,0.6476843989,1.2228771697,0.\Cl,0
 .7846651256,-1.9600461161,0.\Cl,-1.8870120228,-3.5959772076,0.\\Versio
 n=ES64L-G16RevB.01\State=2-A'\HF=-2529.4899047\S2=0.76363\S2-1=0.\S2A=
 0.750085\RMSD=3.708e-09\RMSF=1.897e-04\ZeroPoint=0.0403875\Thermal=0.0
 506746\Dipole=-0.0013119,0.0477531,0.\DipoleDeriv=0.7084705,-0.5744862
 ,0.,-0.4974421,0.3001926,0.,0.,0.,0.0244211,-0.2578496,-0.0019328,0.,-
 0.0019327,-0.1875472,0.,0.,0.,-0.0323569,0.6484787,0.5936364,0.,0.5165
 922,0.3601845,0.,0.,0.,0.0244211,0.7134223,-0.48054,0.,-0.4968011,0.00
 51985,0.,0.,0.,0.0003724,-0.3021867,-0.0334547,0.,-0.0334548,0.9146996
 ,0.,0.,0.,-0.0051631,0.6577117,0.5164177,0.,0.5326789,0.0609093,0.,0.,
 0.,0.0003724,-0.5404272,-0.3084143,0.,-0.3434092,-0.173305,0.,0.,0.,-0
 .0050688,-0.5527876,0.3446094,0.,0.3296621,-0.2302633,0.,0.,0.,-0.0001
 157,-0.5148531,-0.3602573,0.,-0.34531,-0.268198,0.,0.,0.,-0.0001157,-0
 .5750523,0.2863247,0.,0.3213195,-0.1386798,0.,0.,0.,-0.0050689,0.01507
 33,0.0180971,0.,0.0180971,-0.6431911,0.,0.,0.,-0.0016978\Polar=171.356
 5598,0.7371576,144.5429097,0.,0.,67.2048348\Quadrupole=0.3882927,0.292
 2598,-0.6805525,0.0026392,0.,0.\PG=CS [SG(C6Cl5)]\NImag=0\\0.60570042,
 0.04755626,0.56206996,0.,0.,0.10943936,-0.29909550,-0.10780871,0.,0.71
 479665,-0.13574896,-0.15076584,0.,0.01037891,0.33727261,0.,0.,-0.04852
 618,0.,0.,0.06597472,-0.06143901,-0.02816437,0.,-0.31199979,0.12688366
 ,0.,0.61078277,0.02084426,0.07169262,0.,0.09894341,-0.13786151,0.,-0.0
 4487781,0.55698758,0.,0.,0.00045792,0.,0.,-0.04852618,0.,0.,0.10943937
 ,-0.01821527,-0.03687866,0.,0.02843356,0.02649224,0.,-0.09585511,0.046
 23665,0.,0.56013172,-0.03780005,-0.06475646,0.,0.09917693,-0.02107758,
 0.,-0.03828237,-0.29851147,0.,0.02243975,0.59821323,0.,0.,0.00612541,0
 .,0.,0.00892239,0.,0.,-0.05794091,0.,0.,0.10803088,0.04000795,0.090667
 13,0.,-0.08628100,-0.00225715,0.,0.04603483,-0.08684658,0.,-0.24458468
 ,-0.04849513,0.,0.61217359,0.02276511,-0.02344981,0.,-0.00225716,-0.00
 417886,0.,-0.01894456,-0.02947670,0.,-0.12353801,-0.15106651,0.,0.0017
 7181,0.54772699,0.,0.,0.00124779,0.,0.,0.00280521,0.,0.,0.00124779,0.,
 0.,-0.05311296,0.,0.,0.11013826,-0.09602990,-0.03510341,0.,0.03517328,
 -0.02339934,0.,-0.02244931,0.03920488,0.,-0.05834210,-0.03701056,0.,-0
 .25373325,0.11789290,0.,0.56270663,0.04941561,-0.29833668,0.,-0.096084
 03,-0.02781731,0.,0.04012626,-0.06052242,0.,0.02984775,0.07192872,0.,0
 .04285003,-0.14191781,0.,-0.02439198,0.59563815,0.,0.,-0.05794091,0.,0
 .,0.00892239,0.,0.,0.00612541,0.,0.,-0.00148354,0.,0.,-0.05311296,0.,0
 .,0.10803088,-0.01684190,-0.01203626,0.,0.00152207,-0.00136885,0.,0.00
 005152,0.00060859,0.,0.00115512,0.00401003,0.,-0.03749664,-0.02041320,
 0.,-0.15394088,-0.07004953,0.,0.21258724,-0.03389826,-0.02211844,0.,0.
 00182428,-0.00474294,0.,0.00040454,0.00140869,0.,0.00174051,-0.0012617
 2,0.,-0.00001762,0.00101084,0.,-0.07108009,-0.08078277,0.,0.09598058,0
 .11305014,0.,0.,0.00417368,0.,0.,0.00401371,0.,0.,-0.00145021,0.,0.,0.
 00408160,0.,0.,0.00297665,0.,0.,-0.02183496,0.,0.,0.01019942,-0.151307
 63,0.08041696,0.,-0.04288768,0.01405376,0.,0.00085050,-0.00245398,0.,0
 .00064656,0.00142845,0.,0.00076223,-0.00104452,0.,-0.01434909,0.008892
 65,0.,0.00272187,-0.00329804,0.,0.20631644,0.06261530,-0.07749831,0.,0
 .00517441,0.00862450,0.,-0.00277327,-0.00162496,0.,0.00036427,0.000102
 37,0.,-0.00357919,-0.00216996,0.,0.03204261,-0.01960173,0.,0.00391523,
 -0.00672173,0.,-0.09982402,0.10033275,0.,0.,-0.02171189,0.,0.,0.001779
 05,0.,0.,0.00401207,0.,0.,-0.00094032,0.,0.,0.00368212,0.,0.,0.0049615
 9,0.,0.,-0.00130249,0.,0.,0.00970879,0.00055648,0.00257393,0.,-0.04167
 835,-0.01681961,0.,-0.14324437,-0.08403193,0.,-0.01212092,-0.00848132,
 0.,0.00049993,0.00119132,0.,0.00074320,-0.00139322,0.,-0.00150236,-0.0
 0105548,0.,-0.00095652,-0.00014526,0.,0.19505262,0.00289321,-0.0013309
 5,0.,-0.00794026,0.00741519,0.,-0.06623027,-0.08556157,0.,-0.03163129,
 -0.02182989,0.,0.00372599,-0.00190766,0.,-0.00032904,0.00000574,0.,-0.
 00107770,-0.00058554,0.,0.00007949,0.00023960,0.,0.10503210,0.11159654
 ,0.,0.,0.00401207,0.,0.,0.00177905,0.,0.,-0.02171189,0.,0.,0.00496159,
 0.,0.,0.00368212,0.,0.,-0.00094032,0.,0.,0.00003962,0.,0.,-0.00027782,
 0.,0.,0.00970879,0.00011115,-0.00067993,0.,0.00152815,0.00171366,0.,-0
 .01937584,0.01218705,0.,-0.16145683,0.06561376,0.,-0.03850058,0.018240
 71,0.,0.00146306,-0.00386021,0.,-0.00164560,0.00019309,0.,-0.00161654,
 0.00102101,0.,0.00272723,-0.00339569,0.,0.22281022,-0.00047588,0.00134
 906,0.,-0.00147947,-0.00474903,0.,0.03404906,-0.01958448,0.,0.06664433
 ,-0.07326682,0.,-0.00215486,0.00201475,0.,-0.00159069,-0.00156966,0.,-
 0.00031376,0.00054908,0.,0.00099879,-0.00047136,0.,0.00381758,-0.00672
 709,0.,-0.08994554,0.10282720,0.,0.,-0.00145021,0.,0.,0.00401371,0.,0.
 ,0.00417368,0.,0.,-0.02183496,0.,0.,0.00297666,0.,0.,0.00408160,0.,0.,
 0.00017143,0.,0.,0.00003962,0.,0.,-0.00130249,0.,0.,0.01019942,-0.0034
 4680,-0.00054293,0.,0.00048860,0.00007170,0.,-0.00335619,0.00018548,0.
 ,0.00020795,-0.02259950,0.,-0.03888239,0.00433560,0.,-0.00124165,0.024
 64667,0.,-0.00661043,0.00920650,0.,-0.00018015,0.00118890,0.,-0.000076
 94,-0.00112654,0.,-0.00604443,-0.00954956,0.,0.05914243,0.00183341,0.0
 0314485,0.,0.00007169,-0.00211923,0.,-0.00219086,0.00305424,0.,-0.0017
 1754,-0.03847386,0.,0.00433559,-0.19658527,0.,0.00376471,-0.03702422,0
 .,0.00074488,0.00019440,0.,0.00075046,-0.00121116,0.,-0.00068810,-0.00
 131437,0.,-0.00108792,-0.00037164,0.,-0.00581632,0.27070627,0.,0.,0.00
 417296,0.,0.,-0.00115787,0.,0.,0.00417296,0.,0.,0.00319083,0.,0.,-0.02
 253068,0.,0.,0.00319083,0.,0.,-0.00106846,0.,0.,0.00004926,0.,0.,0.000
 04926,0.,0.,-0.00106846,0.,0.,0.01099935\\-0.00013471,0.00023807,0.,0.
 00001130,-0.00041187,0.,0.00012144,0.00024509,0.,-0.00036516,0.0001508
 7,0.,-0.00001059,0.00038671,0.,0.00035630,0.00017071,0.,-0.00032066,-0
 .00007297,0.,0.00003546,-0.00012856,0.,-0.00002835,-0.00013030,0.,0.00
 032414,-0.00005530,0.,0.00001083,-0.00039245,0.\\\@


 It is also a good rule not to put too much confidence in
 experimental results until they have been confirmed by
 Theory.
                             -- Sir Arthur Eddington
 Job cpu time:       0 days  1 hours  1 minutes 13.0 seconds.
 Elapsed time:       0 days  0 hours 15 minutes 24.7 seconds.
 File lengths (MBytes):  RWF=    261 Int=      0 D2E=      0 Chk=     34 Scr=      1
 Normal termination of Gaussian 16 at Wed Dec 10 11:41:37 2025.
