 Entering Gaussian System, Link 0=g16
 Initial command:
 /share/software/user/restricted/gaussian/g16.B01/l1.exe "/home/users/jlapier/Chloroaromatics/Gau-13976.inp" -scrdir="/home/users/jlapier/Chloroaromatics/"
 Entering Link 1 = /share/software/user/restricted/gaussian/g16.B01/l1.exe PID=     13977.
  
 Copyright (c) 1988-2017, Gaussian, Inc.  All Rights Reserved.
  
 This is part of the Gaussian(R) 16 program.  It is based on
 the Gaussian(R) 09 system (copyright 2009, Gaussian, Inc.),
 the Gaussian(R) 03 system (copyright 2003, Gaussian, Inc.),
 the Gaussian(R) 98 system (copyright 1998, Gaussian, Inc.),
 the Gaussian(R) 94 system (copyright 1995, Gaussian, Inc.),
 the Gaussian 92(TM) system (copyright 1992, Gaussian, Inc.),
 the Gaussian 90(TM) system (copyright 1990, Gaussian, Inc.),
 the Gaussian 88(TM) system (copyright 1988, Gaussian, Inc.),
 the Gaussian 86(TM) system (copyright 1986, Carnegie Mellon
 University), and the Gaussian 82(TM) system (copyright 1983,
 Carnegie Mellon University). Gaussian is a federally registered
 trademark of Gaussian, Inc.
  
 This software contains proprietary and confidential information,
 including trade secrets, belonging to Gaussian, Inc.
  
 This software is provided under written license and may be
 used, copied, transmitted, or stored only in accord with that
 written license.
  
 The following legend is applicable only to US Government
 contracts under FAR:
  
                    RESTRICTED RIGHTS LEGEND
  
 Use, reproduction and disclosure by the US Government is
 subject to restrictions as set forth in subparagraphs (a)
 and (c) of the Commercial Computer Software - Restricted
 Rights clause in FAR 52.227-19.
  
 Gaussian, Inc.
 340 Quinnipiac St., Bldg. 40, Wallingford CT 06492
  
  
 ---------------------------------------------------------------
 Warning -- This program may not be used in any manner that
 competes with the business of Gaussian, Inc. or will provide
 assistance to any competitor of Gaussian, Inc.  The licensee
 of this program is prohibited from giving any competitor of
 Gaussian, Inc. access to this program.  By using this program,
 the user acknowledges that Gaussian, Inc. is engaged in the
 business of creating and licensing software in the field of
 computational chemistry and represents and warrants to the
 licensee that it is not a competitor of Gaussian, Inc. and that
 it will not use this program in any manner prohibited above.
 ---------------------------------------------------------------
  

 Cite this work as:
 Gaussian 16, Revision B.01,
 M. J. Frisch, G. W. Trucks, H. B. Schlegel, G. E. Scuseria, 
 M. A. Robb, J. R. Cheeseman, G. Scalmani, V. Barone, 
 G. A. Petersson, H. Nakatsuji, X. Li, M. Caricato, A. V. Marenich, 
 J. Bloino, B. G. Janesko, R. Gomperts, B. Mennucci, H. P. Hratchian, 
 J. V. Ortiz, A. F. Izmaylov, J. L. Sonnenberg, D. Williams-Young, 
 F. Ding, F. Lipparini, F. Egidi, J. Goings, B. Peng, A. Petrone, 
 T. Henderson, D. Ranasinghe, V. G. Zakrzewski, J. Gao, N. Rega, 
 G. Zheng, W. Liang, M. Hada, M. Ehara, K. Toyota, R. Fukuda, 
 J. Hasegawa, M. Ishida, T. Nakajima, Y. Honda, O. Kitao, H. Nakai, 
 T. Vreven, K. Throssell, J. A. Montgomery, Jr., J. E. Peralta, 
 F. Ogliaro, M. J. Bearpark, J. J. Heyd, E. N. Brothers, K. N. Kudin, 
 V. N. Staroverov, T. A. Keith, R. Kobayashi, J. Normand, 
 K. Raghavachari, A. P. Rendell, J. C. Burant, S. S. Iyengar, 
 J. Tomasi, M. Cossi, J. M. Millam, M. Klene, C. Adamo, R. Cammi, 
 J. W. Ochterski, R. L. Martin, K. Morokuma, O. Farkas, 
 J. B. Foresman, and D. J. Fox, Gaussian, Inc., Wallingford CT, 2016.
 
 ******************************************
 Gaussian 16:  ES64L-G16RevB.01 20-Dec-2017
                10-Dec-2025 
 ******************************************
 %mem=8GB
 %nprocshare=4
 Will use up to    4 processors via shared memory.
 %oldchk=geometry_chks/1234-1_34-ClBzNeutralRadical.chk
 %chk=frequency_chks/1234-1_34-ClBzNeutralRadical_Freq.chk
 Copying data from "geometry_chks/1234-1_34-ClBzNeutralRadical.chk" to current chk file "frequency_chks/1234-1_34-ClBzNeutralRadical_Freq.chk"
 IOpt=  2 FromEx=T IUOpen= 4 IOptOp= 5 NList=   0 IFRang= 0 IUIn= 4 IUOut= 2.
 -------------------------------------------------------
 # opt freq 6-311++g(d,p) guess=read geom=allcheck m062x
 -------------------------------------------------------
 1/18=20,19=15,26=3,29=7,38=1/1,3;
 2/9=110,12=2,40=1/2;
 3/5=4,6=6,7=1111,11=2,14=-4,25=1,30=1,71=1,74=-55,116=-2/1,2,3;
 4/5=1/1;
 5/5=2,38=6/2;
 6/7=2,8=2,9=2,10=2,28=1/1;
 7//1,2,3,16;
 1/18=20,19=15,26=3/3(2);
 2/9=110/2;
 99//99;
 2/9=110/2;
 3/5=4,6=6,7=1111,11=2,14=-2,25=1,30=1,71=1,74=-55/1,2,3;
 4/5=5,16=3,69=1/1;
 5/5=2,38=5/2;
 7//1,2,3,16;
 1/18=20,19=15,26=3/3(-5);
 2/9=110/2;
 6/7=2,8=2,9=2,10=2,19=2,28=1/1;
 99/9=1/99;
 Structure from the checkpoint file:  "frequency_chks/1234-1_34-ClBzNeutralRadical_Freq.chk"
 --------------------------------
 Neutral Radical (removed 2) 1_34
 --------------------------------
 Charge =  0 Multiplicity = 2
 Redundant internal coordinates found in file.  (old form).
 C,0,-3.0643932539,0.0674518742,0.
 C,0,-1.956587435,0.8819930081,0.
 C,0,-0.7128358267,0.1967166281,0.
 C,0,-0.6962245621,-1.2119103067,0.
 C,0,-1.8752477241,-1.9652226266,0.
 C,0,-3.1263674915,-1.3055183027,0.
 Cl,0,-4.5819200248,-2.1468286778,0.
 Cl,0,-2.085033081,2.5559536717,0.
 Cl,0,0.7436325492,1.0493279666,0.
 H,0,0.2726851902,-1.7359444992,0.
 H,0,-1.8304783404,-3.0637187357,0.
 Recover connectivity data from disk.

 GradGradGradGradGradGradGradGradGradGradGradGradGradGradGradGradGradGrad
 Berny optimization.
 Initialization pass.
                           ----------------------------
                           !    Initial Parameters    !
                           ! (Angstroms and Degrees)  !
 --------------------------                            --------------------------
 ! Name  Definition              Value          Derivative Info.                !
 --------------------------------------------------------------------------------
 ! R1    R(1,2)                  1.375          estimate D2E/DX2                !
 ! R2    R(1,6)                  1.3744         estimate D2E/DX2                !
 ! R3    R(2,3)                  1.42           estimate D2E/DX2                !
 ! R4    R(2,8)                  1.6789         estimate D2E/DX2                !
 ! R5    R(3,4)                  1.4087         estimate D2E/DX2                !
 ! R6    R(3,9)                  1.6877         estimate D2E/DX2                !
 ! R7    R(4,5)                  1.3991         estimate D2E/DX2                !
 ! R8    R(4,10)                 1.1015         estimate D2E/DX2                !
 ! R9    R(5,6)                  1.4144         estimate D2E/DX2                !
 ! R10   R(5,11)                 1.0994         estimate D2E/DX2                !
 ! R11   R(6,7)                  1.6812         estimate D2E/DX2                !
 ! A1    A(2,1,6)              128.9106         estimate D2E/DX2                !
 ! A2    A(1,2,3)              114.8202         estimate D2E/DX2                !
 ! A3    A(1,2,8)              121.9383         estimate D2E/DX2                !
 ! A4    A(3,2,8)              123.2415         estimate D2E/DX2                !
 ! A5    A(2,3,4)              119.5293         estimate D2E/DX2                !
 ! A6    A(2,3,9)              120.8018         estimate D2E/DX2                !
 ! A7    A(4,3,9)              119.6689         estimate D2E/DX2                !
 ! A8    A(3,4,5)              121.9001         estimate D2E/DX2                !
 ! A9    A(3,4,10)             119.0823         estimate D2E/DX2                !
 ! A10   A(5,4,10)             119.0176         estimate D2E/DX2                !
 ! A11   A(4,5,6)              119.622          estimate D2E/DX2                !
 ! A12   A(4,5,11)             120.2419         estimate D2E/DX2                !
 ! A13   A(6,5,11)             120.1361         estimate D2E/DX2                !
 ! A14   A(1,6,5)              115.2178         estimate D2E/DX2                !
 ! A15   A(1,6,7)              122.6125         estimate D2E/DX2                !
 ! A16   A(5,6,7)              122.1698         estimate D2E/DX2                !
 ! D1    D(6,1,2,3)              0.0            estimate D2E/DX2                !
 ! D2    D(6,1,2,8)            180.0            estimate D2E/DX2                !
 ! D3    D(2,1,6,5)              0.0            estimate D2E/DX2                !
 ! D4    D(2,1,6,7)            180.0            estimate D2E/DX2                !
 ! D5    D(1,2,3,4)              0.0            estimate D2E/DX2                !
 ! D6    D(1,2,3,9)            180.0            estimate D2E/DX2                !
 ! D7    D(8,2,3,4)            180.0            estimate D2E/DX2                !
 ! D8    D(8,2,3,9)              0.0            estimate D2E/DX2                !
 ! D9    D(2,3,4,5)              0.0            estimate D2E/DX2                !
 ! D10   D(2,3,4,10)           180.0            estimate D2E/DX2                !
 ! D11   D(9,3,4,5)            180.0            estimate D2E/DX2                !
 ! D12   D(9,3,4,10)             0.0            estimate D2E/DX2                !
 ! D13   D(3,4,5,6)              0.0            estimate D2E/DX2                !
 ! D14   D(3,4,5,11)           180.0            estimate D2E/DX2                !
 ! D15   D(10,4,5,6)           180.0            estimate D2E/DX2                !
 ! D16   D(10,4,5,11)            0.0            estimate D2E/DX2                !
 ! D17   D(4,5,6,1)              0.0            estimate D2E/DX2                !
 ! D18   D(4,5,6,7)            180.0            estimate D2E/DX2                !
 ! D19   D(11,5,6,1)           180.0            estimate D2E/DX2                !
 ! D20   D(11,5,6,7)             0.0            estimate D2E/DX2                !
 --------------------------------------------------------------------------------
 Trust Radius=3.00D-01 FncErr=1.00D-07 GrdErr=1.00D-06 EigMax=2.50D+02 EigMin=1.00D-04
 Number of steps in this run=     57 maximum allowed number of steps=    100.
 GradGradGradGradGradGradGradGradGradGradGradGradGradGradGradGradGradGrad

                          Input orientation:                          
 ---------------------------------------------------------------------
 Center     Atomic      Atomic             Coordinates (Angstroms)
 Number     Number       Type             X           Y           Z
 ---------------------------------------------------------------------
      1          6           0       -3.064393    0.067452   -0.000000
      2          6           0       -1.956587    0.881993    0.000000
      3          6           0       -0.712836    0.196717    0.000000
      4          6           0       -0.696225   -1.211910    0.000000
      5          6           0       -1.875248   -1.965223   -0.000000
      6          6           0       -3.126367   -1.305518   -0.000000
      7         17           0       -4.581920   -2.146829   -0.000000
      8         17           0       -2.085033    2.555954    0.000000
      9         17           0        0.743633    1.049328    0.000000
     10          1           0        0.272685   -1.735944    0.000000
     11          1           0       -1.830478   -3.063719   -0.000000
 ---------------------------------------------------------------------
                    Distance matrix (angstroms):
                    1          2          3          4          5
     1  C    0.000000
     2  C    1.375031   0.000000
     3  C    2.355108   1.420043   0.000000
     4  C    2.691652   2.443961   1.408725   0.000000
     5  C    2.354959   2.848377   2.454625   1.399134   0.000000
     6  C    1.374368   2.480643   2.842859   2.431945   1.414394
     7  Cl   2.684386   4.008258   4.523496   3.996586   2.712758
     8  Cl   2.674283   1.678881   2.729272   4.015668   4.526041
     9  Cl   3.932574   2.705400   1.687675   2.680744   3.993250
    10  H    3.793195   3.438496   2.169431   1.101543   2.160135
    11  H    3.365528   3.947727   3.446674   2.171572   1.099408
                    6          7          8          9         10
     6  C    0.000000
     7  Cl   1.681201   0.000000
     8  Cl   3.999418   5.324529   0.000000
     9  Cl   4.530144   6.211033   3.204882   0.000000
    10  H    3.426197   4.871962   4.896859   2.824807   0.000000
    11  H    2.184170   2.900193   5.625435   4.852134   2.487224
                   11
    11  H    0.000000
 Stoichiometry    C6H2Cl3(2)
 Framework group  CS[SG(C6H2Cl3)]
 Deg. of freedom    19
 Full point group                 CS      NOp   2
 Largest Abelian subgroup         CS      NOp   2
 Largest concise Abelian subgroup C1      NOp   1
                         Standard orientation:                         
 ---------------------------------------------------------------------
 Center     Atomic      Atomic             Coordinates (Angstroms)
 Number     Number       Type             X           Y           Z
 ---------------------------------------------------------------------
      1          6           0        1.140954    0.115626    0.000000
      2          6           0       -0.000000    0.883048    0.000000
      3          6           0       -1.213954    0.146274    0.000000
      4          6           0       -1.171545   -1.261813    0.000000
      5          6           0        0.037998   -1.965076    0.000000
      6          6           0        1.260386   -1.253543    0.000000
      7         17           0        2.749902   -2.033143    0.000000
      8         17           0        0.058213    2.560920    0.000000
      9         17           0       -2.704859    0.937127    0.000000
     10          1           0       -2.117653   -1.825974    0.000000
     11          1           0        0.039283   -3.064483    0.000000
 ---------------------------------------------------------------------
 Rotational constants (GHZ):           1.8609597           0.6063690           0.4573482
 Standard basis: 6-311++G(d,p) (5D, 7F)
 There are   183 symmetry adapted cartesian basis functions of A'  symmetry.
 There are    62 symmetry adapted cartesian basis functions of A"  symmetry.
 There are   174 symmetry adapted basis functions of A'  symmetry.
 There are    62 symmetry adapted basis functions of A"  symmetry.
   236 basis functions,   393 primitive gaussians,   245 cartesian basis functions
    45 alpha electrons       44 beta electrons
       nuclear repulsion energy       614.3412212732 Hartrees.
 NAtoms=   11 NActive=   11 NUniq=   11 SFac= 1.00D+00 NAtFMM=   60 NAOKFM=F Big=F
 Integral buffers will be    131072 words long.
 Raffenetti 2 integral format.
 Two-electron integral symmetry is turned on.
 One-electron integrals computed using PRISM.
 NBasis=   236 RedAO= T EigKep=  2.07D-06  NBF=   174    62
 NBsUse=   235 1.00D-06 EigRej=  9.44D-07 NBFU=   173    62
 Initial guess from the checkpoint file:  "frequency_chks/1234-1_34-ClBzNeutralRadical_Freq.chk"
 B after Tr=     0.000000    0.000000    0.000000
         Rot=    1.000000   -0.000000    0.000000   -0.000000 Ang=   0.00 deg.
 Initial guess orbital symmetries:
 Alpha Orbitals:
       Occupied  (A') (A') (A') (A') (A') (A') (A') (A') (A') (A')
                 (A') (A') (A") (A') (A") (A') (A") (A') (A') (A')
                 (A") (A') (A") (A") (A") (A") (A') (A') (A') (A")
                 (A') (A') (A') (A') (A') (A') (A') (A') (A') (A')
                 (A') (A') (A') (A') (A')
       Virtual   (A') (A') (A') (A') (A') (A') (A') (A') (A') (A')
                 (A') (A') (A') (A') (A') (A') (A') (A') (A') (A')
                 (A') (A') (A') (A') (A') (A') (A') (A') (A') (A')
                 (A') (A') (A') (A') (A') (A') (A') (A') (A') (A')
                 (A') (A') (A') (A') (A') (A') (A') (A') (A') (A')
                 (A') (A') (A') (A') (A') (A') (A') (A') (A') (A')
                 (A') (A') (A') (A') (A') (A') (A') (A') (A') (A')
                 (A') (A') (A') (A') (A') (A') (A') (A') (A') (A')
                 (A') (A') (A') (A') (A') (A') (A') (A') (A') (A')
                 (A') (A') (A') (A') (A') (A') (A') (A') (A') (A')
                 (A') (A') (A') (A') (A') (A') (A') (A') (A') (A')
                 (A') (A') (A') (A') (A') (A') (A') (A') (A') (A')
                 (A') (A') (A') (A') (A') (A') (A') (A') (A') (A')
                 (A') (A') (A') (A') (A') (A') (A') (A") (A") (A")
                 (A") (A") (A") (A") (A") (A") (A") (A") (A") (A")
                 (A") (A") (A") (A") (A") (A") (A") (A") (A") (A")
                 (A") (A") (A") (A") (A") (A") (A") (A") (A") (A")
                 (A") (A") (A") (A") (A") (A") (A") (A") (A") (A")
                 (A") (A") (A") (A") (A") (A") (A") (A") (A") (A")
 Beta  Orbitals:
       Occupied  (A') (A') (A') (A') (A') (A') (A') (A') (A') (A')
                 (A') (A') (A") (A') (A") (A') (A") (A') (A') (A')
                 (A") (A") (A") (A') (A") (A") (A') (A') (A') (A")
                 (A') (A') (A') (A') (A') (A') (A') (A') (A') (A')
                 (A') (A') (A') (A')
       Virtual   (A') (A') (A') (A') (A') (A') (A') (A') (A') (A')
                 (A') (A') (A') (A') (A') (A') (A') (A') (A') (A')
                 (A') (A') (A') (A') (A') (A') (A') (A') (A') (A')
                 (A') (A') (A') (A') (A') (A') (A') (A') (A') (A')
                 (A') (A') (A') (A') (A') (A') (A') (A') (A') (A')
                 (A') (A') (A') (A') (A') (A') (A') (A') (A') (A')
                 (A') (A') (A') (A') (A') (A') (A') (A') (A') (A')
                 (A') (A') (A') (A') (A') (A') (A') (A') (A') (A')
                 (A') (A') (A') (A') (A') (A') (A') (A') (A') (A')
                 (A') (A') (A') (A') (A') (A') (A') (A') (A') (A')
                 (A') (A') (A') (A') (A') (A') (A') (A') (A') (A')
                 (A') (A') (A') (A') (A') (A') (A') (A') (A') (A')
                 (A') (A') (A') (A') (A') (A') (A') (A') (A') (A')
                 (A') (A') (A') (A') (A') (A') (A') (A') (A") (A")
                 (A") (A") (A") (A") (A") (A") (A") (A") (A") (A")
                 (A") (A") (A") (A") (A") (A") (A") (A") (A") (A")
                 (A") (A") (A") (A") (A") (A") (A") (A") (A") (A")
                 (A") (A") (A") (A") (A") (A") (A") (A") (A") (A")
                 (A") (A") (A") (A") (A") (A") (A") (A") (A") (A")
                 (A")
 Initial guess <Sx>= 0.0000 <Sy>= 0.0000 <Sz>= 0.5000 <S**2>= 0.7500 S= 0.5000
 Keep R1 and R2 ints in memory in symmetry-blocked form, NReq=617299900.
 Requested convergence on RMS density matrix=1.00D-08 within 128 cycles.
 Requested convergence on MAX density matrix=1.00D-06.
 Requested convergence on             energy=1.00D-06.
 No special actions if energy rises.
 EnCoef did     3 forward-backward iterations
 EnCoef did     2 forward-backward iterations
 EnCoef did     3 forward-backward iterations
 SCF Done:  E(UM062X) =  -1610.29939146     A.U. after   29 cycles
            NFock= 29  Conv=0.79D-08     -V/T= 2.0023
 <Sx>= 0.0000 <Sy>= 0.0000 <Sz>= 0.5000 <S**2>= 0.7633 S= 0.5066
 <L.S>=  0.00000000000    
 Annihilation of the first spin contaminant:
 S**2 before annihilation     0.7633,   after     0.7501

 **********************************************************************

            Population analysis using the SCF Density.

 **********************************************************************

 Orbital symmetries:
 Alpha Orbitals:
       Occupied  (A') (A') (A') (A') (A') (A') (A') (A') (A') (A')
                 (A') (A') (A') (A') (A') (A") (A') (A") (A') (A")
                 (A') (A') (A') (A') (A') (A') (A') (A') (A') (A')
                 (A') (A') (A') (A") (A') (A') (A") (A") (A') (A')
                 (A') (A") (A') (A") (A")
       Virtual   (A") (A") (A') (A') (A') (A') (A') (A') (A") (A')
                 (A") (A') (A') (A") (A') (A') (A") (A") (A') (A')
                 (A') (A") (A') (A') (A") (A') (A") (A') (A') (A")
                 (A') (A') (A') (A") (A') (A') (A') (A') (A') (A')
                 (A') (A') (A') (A') (A') (A') (A') (A') (A') (A')
                 (A') (A") (A') (A") (A') (A') (A') (A") (A') (A")
                 (A') (A') (A') (A") (A') (A") (A") (A") (A') (A')
                 (A') (A") (A') (A') (A') (A') (A") (A') (A') (A")
                 (A') (A') (A') (A") (A') (A") (A") (A') (A') (A')
                 (A") (A') (A') (A') (A') (A") (A') (A") (A') (A')
                 (A') (A") (A') (A') (A') (A") (A') (A") (A') (A")
                 (A') (A') (A') (A') (A") (A') (A") (A') (A') (A')
                 (A') (A") (A") (A") (A') (A") (A') (A') (A') (A")
                 (A') (A') (A") (A") (A') (A") (A") (A') (A') (A')
                 (A') (A') (A') (A') (A') (A') (A') (A") (A') (A')
                 (A') (A") (A") (A") (A") (A') (A") (A') (A') (A')
                 (A') (A') (A') (A') (A') (A') (A') (A') (A') (A')
                 (A') (A') (A') (A') (A') (A') (A') (A') (A") (A")
                 (A") (A') (A') (A') (A') (A') (A') (A') (A') (A')
 Beta  Orbitals:
       Occupied  (A') (A') (A') (A') (A') (A') (A') (A') (A') (A')
                 (A') (A') (A') (A') (A') (A") (A') (A") (A') (A")
                 (A') (A') (A') (A') (A') (A') (A') (A') (A') (A')
                 (A') (A') (A') (A") (A') (A') (A") (A") (A') (A')
                 (A") (A') (A") (A")
       Virtual   (A') (A") (A") (A') (A') (A') (A') (A') (A') (A")
                 (A') (A") (A') (A") (A') (A') (A') (A") (A') (A")
                 (A') (A') (A") (A') (A') (A") (A') (A') (A") (A')
                 (A") (A') (A') (A') (A") (A') (A') (A') (A') (A')
                 (A') (A') (A') (A') (A') (A') (A') (A') (A') (A')
                 (A') (A') (A') (A") (A") (A') (A') (A") (A') (A')
                 (A') (A") (A') (A') (A") (A') (A") (A") (A") (A')
                 (A') (A") (A') (A') (A') (A') (A') (A") (A') (A')
                 (A") (A') (A') (A') (A") (A') (A") (A") (A') (A')
                 (A') (A") (A') (A') (A') (A') (A") (A') (A") (A')
                 (A') (A') (A') (A") (A') (A') (A") (A') (A') (A")
                 (A") (A') (A') (A') (A") (A') (A') (A") (A') (A')
                 (A') (A') (A") (A") (A") (A') (A") (A') (A') (A')
                 (A") (A') (A') (A") (A") (A') (A") (A") (A') (A')
                 (A') (A') (A') (A') (A') (A') (A') (A') (A") (A')
                 (A') (A') (A") (A") (A") (A") (A') (A") (A') (A')
                 (A') (A') (A') (A') (A') (A') (A') (A') (A') (A')
                 (A') (A') (A') (A') (A') (A') (A') (A') (A') (A")
                 (A") (A") (A') (A') (A') (A') (A') (A') (A') (A')
                 (A')
 The electronic state is 2-A'.
 Alpha  occ. eigenvalues -- -102.70137-102.69894-102.69798 -10.64274 -10.64065
 Alpha  occ. eigenvalues --  -10.63714 -10.60972 -10.59025 -10.58724  -9.84468
 Alpha  occ. eigenvalues --   -9.84233  -9.84142  -7.57034  -7.56790  -7.56673
 Alpha  occ. eigenvalues --   -7.56283  -7.56274  -7.56048  -7.56046  -7.55979
 Alpha  occ. eigenvalues --   -7.55956  -1.05688  -1.01913  -0.99132  -0.94342
 Alpha  occ. eigenvalues --   -0.86550  -0.83122  -0.72132  -0.70280  -0.60626
 Alpha  occ. eigenvalues --   -0.59738  -0.55703  -0.53702  -0.52511  -0.50056
 Alpha  occ. eigenvalues --   -0.48005  -0.46864  -0.43925  -0.41450  -0.39933
 Alpha  occ. eigenvalues --   -0.39635  -0.39563  -0.34522  -0.33816  -0.30607
 Alpha virt. eigenvalues --   -0.02137  -0.01579  -0.00399   0.01685   0.02082
 Alpha virt. eigenvalues --    0.03902   0.04092   0.05165   0.05377   0.06333
 Alpha virt. eigenvalues --    0.07151   0.07408   0.08039   0.08065   0.09224
 Alpha virt. eigenvalues --    0.10507   0.10950   0.11554   0.11628   0.11926
 Alpha virt. eigenvalues --    0.12083   0.13175   0.13427   0.14449   0.15075
 Alpha virt. eigenvalues --    0.15114   0.15977   0.16000   0.16985   0.17865
 Alpha virt. eigenvalues --    0.17919   0.19039   0.19620   0.20313   0.21235
 Alpha virt. eigenvalues --    0.22314   0.23151   0.23686   0.24371   0.24838
 Alpha virt. eigenvalues --    0.26398   0.26631   0.28020   0.28875   0.30010
 Alpha virt. eigenvalues --    0.31105   0.32025   0.33106   0.35426   0.42924
 Alpha virt. eigenvalues --    0.43882   0.45673   0.45874   0.47456   0.48195
 Alpha virt. eigenvalues --    0.49552   0.49680   0.49692   0.51592   0.54556
 Alpha virt. eigenvalues --    0.54643   0.55491   0.58192   0.58876   0.60230
 Alpha virt. eigenvalues --    0.61166   0.62199   0.63607   0.65339   0.65968
 Alpha virt. eigenvalues --    0.68741   0.68801   0.70287   0.75070   0.75496
 Alpha virt. eigenvalues --    0.79264   0.79826   0.83826   0.86328   0.86582
 Alpha virt. eigenvalues --    0.87652   0.87767   0.89436   0.89918   0.90134
 Alpha virt. eigenvalues --    0.90888   0.91749   0.93168   0.94085   0.95508
 Alpha virt. eigenvalues --    0.95950   0.97595   0.98489   0.99498   1.01754
 Alpha virt. eigenvalues --    1.02046   1.03751   1.07991   1.10066   1.12189
 Alpha virt. eigenvalues --    1.19136   1.21436   1.22162   1.26747   1.26826
 Alpha virt. eigenvalues --    1.28517   1.30608   1.34094   1.34741   1.35807
 Alpha virt. eigenvalues --    1.45452   1.49802   1.53146   1.56683   1.58802
 Alpha virt. eigenvalues --    1.66611   1.68894   1.71365   1.72658   1.79720
 Alpha virt. eigenvalues --    1.83857   1.85129   1.87566   1.90045   1.92658
 Alpha virt. eigenvalues --    1.94885   1.97262   2.01291   2.09931   2.14000
 Alpha virt. eigenvalues --    2.18350   2.21051   2.27063   2.29462   2.29535
 Alpha virt. eigenvalues --    2.30799   2.32953   2.33725   2.40868   2.43558
 Alpha virt. eigenvalues --    2.45035   2.47592   2.53288   2.57103   2.60251
 Alpha virt. eigenvalues --    2.65142   2.66260   2.66820   2.71604   2.72401
 Alpha virt. eigenvalues --    2.75528   2.79615   2.82153   2.90079   2.92155
 Alpha virt. eigenvalues --    2.98979   3.09326   3.12783   3.13910   3.24041
 Alpha virt. eigenvalues --    3.30954   3.34760   3.43840   3.60346   3.71054
 Alpha virt. eigenvalues --    3.89236   4.05716   4.05897   4.75456   9.94115
 Alpha virt. eigenvalues --    9.98782  10.00367  23.40622  23.86606  23.92395
 Alpha virt. eigenvalues --   23.99490  24.10884  24.15783  25.88154  25.92118
 Alpha virt. eigenvalues --   25.96846  26.15446  26.18009  26.32306  26.57256
 Alpha virt. eigenvalues --   26.69649  26.86587 216.03885 216.09102 216.11028
  Beta  occ. eigenvalues -- -102.70104-102.69867-102.69777 -10.64316 -10.63997
  Beta  occ. eigenvalues --  -10.63754 -10.59983 -10.58963 -10.58750  -9.84454
  Beta  occ. eigenvalues --   -9.84221  -9.84133  -7.56952  -7.56718  -7.56637
  Beta  occ. eigenvalues --   -7.56289  -7.56243  -7.56057  -7.56024  -7.55964
  Beta  occ. eigenvalues --   -7.55938  -1.05164  -1.01647  -0.98910  -0.93931
  Beta  occ. eigenvalues --   -0.85179  -0.82686  -0.71178  -0.69207  -0.59978
  Beta  occ. eigenvalues --   -0.59138  -0.55078  -0.53444  -0.52021  -0.49240
  Beta  occ. eigenvalues --   -0.47619  -0.46818  -0.43846  -0.40813  -0.39741
  Beta  occ. eigenvalues --   -0.39421  -0.39374  -0.32452  -0.30567
  Beta virt. eigenvalues --   -0.09131  -0.02192  -0.00529  -0.00435   0.01641
  Beta virt. eigenvalues --    0.02540   0.03151   0.03974   0.05094   0.05290
  Beta virt. eigenvalues --    0.05655   0.06954   0.07574   0.07936   0.08034
  Beta virt. eigenvalues --    0.09285   0.10307   0.10951   0.11486   0.11659
  Beta virt. eigenvalues --    0.11850   0.12137   0.13022   0.13916   0.14483
  Beta virt. eigenvalues --    0.14754   0.15141   0.15670   0.16416   0.16435
  Beta virt. eigenvalues --    0.17959   0.18050   0.18961   0.19571   0.20288
  Beta virt. eigenvalues --    0.20815   0.22509   0.23175   0.23635   0.24126
  Beta virt. eigenvalues --    0.24862   0.26458   0.26903   0.28230   0.28797
  Beta virt. eigenvalues --    0.29195   0.31130   0.32527   0.33509   0.35987
  Beta virt. eigenvalues --    0.42340   0.43778   0.45577   0.45724   0.47535
  Beta virt. eigenvalues --    0.48281   0.49546   0.49731   0.49754   0.51640
  Beta virt. eigenvalues --    0.53555   0.54716   0.55141   0.56432   0.59084
  Beta virt. eigenvalues --    0.59622   0.61275   0.62207   0.63583   0.65582
  Beta virt. eigenvalues --    0.67390   0.68622   0.69232   0.70817   0.74305
  Beta virt. eigenvalues --    0.75261   0.79608   0.80037   0.83889   0.86259
  Beta virt. eigenvalues --    0.86726   0.87423   0.87863   0.89407   0.90004
  Beta virt. eigenvalues --    0.90291   0.90957   0.91793   0.92849   0.94873
  Beta virt. eigenvalues --    0.95583   0.96153   0.97250   0.98631   0.99437
  Beta virt. eigenvalues --    1.01445   1.02571   1.03585   1.08066   1.10023
  Beta virt. eigenvalues --    1.13091   1.18883   1.21304   1.22700   1.26475
  Beta virt. eigenvalues --    1.26853   1.29747   1.30603   1.34390   1.34774
  Beta virt. eigenvalues --    1.36112   1.46288   1.50399   1.53485   1.58908
  Beta virt. eigenvalues --    1.59585   1.66761   1.69075   1.71738   1.72791
  Beta virt. eigenvalues --    1.80291   1.84564   1.85612   1.87577   1.90555
  Beta virt. eigenvalues --    1.93114   1.95689   1.97779   2.01729   2.10222
  Beta virt. eigenvalues --    2.14013   2.19239   2.21291   2.27091   2.29532
  Beta virt. eigenvalues --    2.29757   2.31166   2.33019   2.34057   2.41276
  Beta virt. eigenvalues --    2.43790   2.45631   2.47684   2.53382   2.57281
  Beta virt. eigenvalues --    2.60623   2.65553   2.66462   2.66968   2.72087
  Beta virt. eigenvalues --    2.72602   2.75708   2.80113   2.82160   2.90218
  Beta virt. eigenvalues --    2.91961   3.02394   3.09371   3.13148   3.14191
  Beta virt. eigenvalues --    3.24073   3.31276   3.35058   3.43909   3.60966
  Beta virt. eigenvalues --    3.71400   3.89660   4.05959   4.06033   4.75690
  Beta virt. eigenvalues --    9.94127   9.98784  10.00375  23.40767  23.86714
  Beta virt. eigenvalues --   23.92428  23.99488  24.11112  24.16406  25.88179
  Beta virt. eigenvalues --   25.92118  25.96872  26.15496  26.18067  26.32347
  Beta virt. eigenvalues --   26.57402  26.69840  26.86734 216.03927 216.09145
  Beta virt. eigenvalues --  216.11072
          Condensed to atoms (all electrons):
               1          2          3          4          5          6
     1  C   18.781122   2.551897  -5.015035  -1.486274  -6.253206  -1.675066
     2  C    2.551897  18.212181  -2.711337  -5.751306  -2.221143  -2.911422
     3  C   -5.015035  -2.711337  18.471454   1.302634  -1.900043  -3.373121
     4  C   -1.486274  -5.751306   1.302634  11.733972   2.284702  -2.240425
     5  C   -6.253206  -2.221143  -1.900043   2.284702  14.824918  -1.430358
     6  C   -1.675066  -2.911422  -3.373121  -2.240425  -1.430358  19.115493
     7  Cl  -0.251652   0.022544   0.137932   0.110029   0.481012  -1.360994
     8  Cl  -0.279862  -1.206898   0.340068   0.163147   0.461474  -0.244532
     9  Cl   0.161514   0.061201  -1.143986   0.134527  -0.156715   0.265918
    10  H    0.088988  -0.076091  -0.125614   0.481305  -0.081416   0.021072
    11  H   -0.064350   0.028408  -0.030496  -0.044232   0.544117  -0.147589
               7          8          9         10         11
     1  C   -0.251652  -0.279862   0.161514   0.088988  -0.064350
     2  C    0.022544  -1.206898   0.061201  -0.076091   0.028408
     3  C    0.137932   0.340068  -1.143986  -0.125614  -0.030496
     4  C    0.110029   0.163147   0.134527   0.481305  -0.044232
     5  C    0.481012   0.461474  -0.156715  -0.081416   0.544117
     6  C   -1.360994  -0.244532   0.265918   0.021072  -0.147589
     7  Cl  17.484772  -0.014268  -0.021814  -0.014091   0.036551
     8  Cl  -0.014268  17.521016  -0.229898  -0.009122   0.006386
     9  Cl  -0.021814  -0.229898  17.481105   0.026682  -0.018192
    10  H   -0.014091  -0.009122   0.026682   0.475174  -0.016338
    11  H    0.036551   0.006386  -0.018192  -0.016338   0.488350
          Atomic-Atomic Spin Densities.
               1          2          3          4          5          6
     1  C    0.625752   0.038170  -0.185919   0.264799  -0.076163   0.199158
     2  C    0.038170   0.171702  -0.396532  -0.276391  -0.025151   0.366685
     3  C   -0.185919  -0.396532   0.480501  -0.073721   0.070291   0.152019
     4  C    0.264799  -0.276391  -0.073721   0.313628  -0.064151  -0.207633
     5  C   -0.076163  -0.025151   0.070291  -0.064151   0.195075   0.016914
     6  C    0.199158   0.366685   0.152019  -0.207633   0.016914  -0.416898
     7  Cl  -0.053295   0.000611   0.001346   0.001586   0.032158   0.013345
     8  Cl  -0.063278  -0.081714   0.106507   0.068175   0.015108  -0.056256
     9  Cl  -0.002054   0.136362  -0.068194  -0.103049  -0.016012   0.039939
    10  H    0.003760  -0.007383  -0.006862   0.018719   0.001225  -0.007058
    11  H    0.023623   0.002297  -0.002351  -0.005287  -0.039979   0.021031
               7          8          9         10         11
     1  C   -0.053295  -0.063278  -0.002054   0.003760   0.023623
     2  C    0.000611  -0.081714   0.136362  -0.007383   0.002297
     3  C    0.001346   0.106507  -0.068194  -0.006862  -0.002351
     4  C    0.001586   0.068175  -0.103049   0.018719  -0.005287
     5  C    0.032158   0.015108  -0.016012   0.001225  -0.039979
     6  C    0.013345  -0.056256   0.039939  -0.007058   0.021031
     7  Cl   0.020131   0.001818  -0.000436   0.000113  -0.003484
     8  Cl   0.001818   0.054019  -0.032235   0.000431  -0.000009
     9  Cl  -0.000436  -0.032235   0.064135  -0.003798  -0.000420
    10  H    0.000113   0.000431  -0.003798   0.002046   0.000069
    11  H   -0.003484  -0.000009  -0.000420   0.000069   0.015019
 Mulliken charges and spin densities:
               1          2
     1  C   -0.558076   0.774552
     2  C    0.001965  -0.071342
     3  C    0.047544   0.077085
     4  C   -0.688079  -0.063324
     5  C   -0.553342   0.109315
     6  C   -0.018977   0.121245
     7  Cl   0.389980   0.013893
     8  Cl   0.492489   0.012566
     9  Cl   0.439658   0.014239
    10  H    0.229452   0.001264
    11  H    0.217385   0.010508
 Sum of Mulliken charges =  -0.00000   1.00000
 Mulliken charges and spin densities with hydrogens summed into heavy atoms:
               1          2
     1  C   -0.558076   0.774552
     2  C    0.001965  -0.071342
     3  C    0.047544   0.077085
     4  C   -0.458627  -0.062061
     5  C   -0.335957   0.119823
     6  C   -0.018977   0.121245
     7  Cl   0.389980   0.013893
     8  Cl   0.492489   0.012566
     9  Cl   0.439658   0.014239
 Electronic spatial extent (au):  <R**2>=           2117.9450
 Charge=             -0.0000 electrons
 Dipole moment (field-independent basis, Debye):
    X=             -0.7562    Y=             -1.5587    Z=              0.0000  Tot=              1.7325
 Quadrupole moment (field-independent basis, Debye-Ang):
   XX=            -72.8055   YY=            -67.8394   ZZ=            -74.1905
   XY=              2.5789   XZ=             -0.0000   YZ=             -0.0000
 Traceless Quadrupole moment (field-independent basis, Debye-Ang):
   XX=             -1.1937   YY=              3.7724   ZZ=             -2.5787
   XY=              2.5789   XZ=             -0.0000   YZ=             -0.0000
 Octapole moment (field-independent basis, Debye-Ang**2):
  XXX=             -6.0722  YYY=             -0.6994  ZZZ=             -0.0000  XYY=             -5.3338
  XXY=             -0.6461  XXZ=             -0.0000  XZZ=              0.1185  YZZ=              4.7029
  YYZ=             -0.0000  XYZ=             -0.0000
 Hexadecapole moment (field-independent basis, Debye-Ang**3):
 XXXX=          -1369.5847 YYYY=          -1174.2183 ZZZZ=            -85.6617 XXXY=            280.1674
 XXXZ=              0.0000 YYYX=            304.7410 YYYZ=             -0.0000 ZZZX=             -0.0000
 ZZZY=             -0.0000 XXYY=           -428.7421 XXZZ=           -256.4577 YYZZ=           -232.2240
 XXYZ=             -0.0000 YYXZ=             -0.0000 ZZXY=            100.3598
 N-N= 6.143412212732D+02 E-N=-5.043028674972D+03  KE= 1.606557437310D+03
 Symmetry A'   KE= 1.462235582578D+03
 Symmetry A"   KE= 1.443218547325D+02
 Symmetry A'   SP= 1.000000000000D+00
 Symmetry A"   SP=-1.586075969997D-14
                          Isotropic Fermi Contact Couplings
        Atom                 a.u.       MegaHertz       Gauss      10(-4) cm-1
     1  C(13)              0.43891     493.41650     176.06328     164.58603
     2  C(13)             -0.01482     -16.65611      -5.94332      -5.55588
     3  C(13)              0.04495      50.53165      18.03095      16.85554
     4  C(13)             -0.00554      -6.22902      -2.22267      -2.07778
     5  C(13)              0.03800      42.71738      15.24262      14.24899
     6  C(13)             -0.01463     -16.44990      -5.86973      -5.48710
     7  Cl(35)             0.01863       8.16685       2.91413       2.72417
     8  Cl(35)             0.01872       8.20777       2.92873       2.73782
     9  Cl(35)             0.00513       2.24974       0.80276       0.75043
    10  H(1)               0.00038       1.71025       0.61026       0.57048
    11  H(1)               0.00459      20.51938       7.32183       6.84453
 --------------------------------------------------------
       Center         ----  Spin Dipole Couplings  ----
                      3XX-RR        3YY-RR        3ZZ-RR
 --------------------------------------------------------
     1   Atom        0.551782     -0.158527     -0.393255
     2   Atom        0.080703      0.020885     -0.101588
     3   Atom        0.008944     -0.011190      0.002246
     4   Atom        0.030973      0.021995     -0.052968
     5   Atom        0.003417     -0.000112     -0.003306
     6   Atom       -0.018462      0.124523     -0.106061
     7   Atom        0.042975      0.093695     -0.136670
     8   Atom       -0.027983      0.181144     -0.153161
     9   Atom        0.099681     -0.068655     -0.031025
    10   Atom        0.001457      0.001112     -0.002569
    11   Atom       -0.003871      0.008608     -0.004737
 --------------------------------------------------------
                        XY            XZ            YZ
 --------------------------------------------------------
     1   Atom        0.687362     -0.000000     -0.000000
     2   Atom       -0.061717      0.000000     -0.000000
     3   Atom        0.024756      0.000000      0.000000
     4   Atom        0.006454     -0.000000     -0.000000
     5   Atom        0.036022      0.000000      0.000000
     6   Atom       -0.003029      0.000000     -0.000000
     7   Atom       -0.127956      0.000000      0.000000
     8   Atom       -0.117328      0.000000     -0.000000
     9   Atom        0.018335     -0.000000      0.000000
    10   Atom       -0.000052     -0.000000     -0.000000
    11   Atom        0.002362     -0.000000     -0.000000
 --------------------------------------------------------


 ---------------------------------------------------------------------------------
              Anisotropic Spin Dipole Couplings in Principal Axis System
 ---------------------------------------------------------------------------------

       Atom             a.u.   MegaHertz   Gauss  10(-4) cm-1        Axes

              Baa    -0.5771   -77.437   -27.631   -25.830 -0.5201  0.8541  0.0000
     1 C(13)  Bbb    -0.3933   -52.771   -18.830   -17.603  0.0000  0.0000  1.0000
              Bcc     0.9703   130.208    46.461    43.433  0.8541  0.5201 -0.0000
 
              Baa    -0.1016   -13.632    -4.864    -4.547  0.0000  0.0000  1.0000
     2 C(13)  Bbb    -0.0178    -2.387    -0.852    -0.796  0.5310  0.8474  0.0000
              Bcc     0.1194    16.019     5.716     5.343  0.8474 -0.5310  0.0000
 
              Baa    -0.0278    -3.737    -1.333    -1.246 -0.5583  0.8297  0.0000
     3 C(13)  Bbb     0.0022     0.301     0.108     0.101  0.0000  0.0000  1.0000
              Bcc     0.0256     3.435     1.226     1.146  0.8297  0.5583 -0.0000
 
              Baa    -0.0530    -7.108    -2.536    -2.371  0.0000  0.0000  1.0000
     4 C(13)  Bbb     0.0186     2.499     0.892     0.834 -0.4631  0.8863 -0.0000
              Bcc     0.0343     4.609     1.645     1.537  0.8863  0.4631 -0.0000
 
              Baa    -0.0344    -4.618    -1.648    -1.540 -0.6896  0.7242  0.0000
     5 C(13)  Bbb    -0.0033    -0.444    -0.158    -0.148  0.0000  0.0000  1.0000
              Bcc     0.0377     5.061     1.806     1.688  0.7242  0.6896 -0.0000
 
              Baa    -0.1061   -14.232    -5.078    -4.747  0.0000  0.0000  1.0000
     6 C(13)  Bbb    -0.0185    -2.486    -0.887    -0.829  0.9998  0.0212  0.0000
              Bcc     0.1246    16.718     5.966     5.577 -0.0212  0.9998 -0.0000
 
              Baa    -0.1367    -7.153    -2.552    -2.386  0.0000  0.0000  1.0000
     7 Cl(35) Bbb    -0.0621    -3.251    -1.160    -1.084  0.7728  0.6347  0.0000
              Bcc     0.1988    10.404     3.712     3.470 -0.6347  0.7728 -0.0000
 
              Baa    -0.1532    -8.016    -2.860    -2.674  0.0000  0.0000  1.0000
     8 Cl(35) Bbb    -0.0806    -4.217    -1.505    -1.407  0.9125  0.4091  0.0000
              Bcc     0.2337    12.233     4.365     4.081 -0.4091  0.9125 -0.0000
 
              Baa    -0.0706    -3.697    -1.319    -1.233 -0.1070  0.9943 -0.0000
     9 Cl(35) Bbb    -0.0310    -1.624    -0.579    -0.542  0.0000  0.0000  1.0000
              Bcc     0.1017     5.320     1.898     1.775  0.9943  0.1070  0.0000
 
              Baa    -0.0026    -1.371    -0.489    -0.457  0.0000  0.0000  1.0000
    10 H(1)   Bbb     0.0011     0.589     0.210     0.197  0.1456  0.9893 -0.0000
              Bcc     0.0015     0.782     0.279     0.261  0.9893 -0.1456 -0.0000
 
              Baa    -0.0047    -2.528    -0.902    -0.843  0.0000  0.0000  1.0000
    11 H(1)   Bbb    -0.0043    -2.296    -0.819    -0.766  0.9837 -0.1799 -0.0000
              Bcc     0.0090     4.823     1.721     1.609  0.1799  0.9837 -0.0000
 

 ---------------------------------------------------------------------------------

 Calling FoFJK, ICntrl=      2127 FMM=F ISym2X=1 I1Cent= 0 IOpClX= 1 NMat=1 NMatS=1 NMatT=0.
 ***** Axes restored to original set *****
 -------------------------------------------------------------------
 Center     Atomic                   Forces (Hartrees/Bohr)
 Number     Number              X              Y              Z
 -------------------------------------------------------------------
      1        6          -0.006418630    0.001957162   -0.000000000
      2        6           0.010585056   -0.041529550   -0.000000000
      3        6          -0.026824829   -0.016025128   -0.000000000
      4        6           0.000423020   -0.001449306   -0.000000000
      5        6          -0.002482285    0.001609182   -0.000000000
      6        6           0.041967698    0.014496568    0.000000000
      7       17          -0.022659929   -0.012608927   -0.000000000
      8       17          -0.002019007    0.023909876    0.000000000
      9       17           0.019025599    0.011321203    0.000000000
     10        1          -0.010520435    0.007600361   -0.000000000
     11        1          -0.001076259    0.010718560    0.000000000
 -------------------------------------------------------------------
 Cartesian Forces:  Max     0.041967698 RMS     0.014421650

 GradGradGradGradGradGradGradGradGradGradGradGradGradGradGradGradGradGrad
 Berny optimization.
 FormGI is forming the generalized inverse of G from B-inverse, IUseBI=4.
 Internal  Forces:  Max     0.025928466 RMS     0.007877346
 Search for a local minimum.
 Step number   1 out of a maximum of   57
 All quantities printed in internal units (Hartrees-Bohrs-Radians)
 Mixed Optimization -- RFO/linear search
 Second derivative matrix not updated -- first step.
 ITU=  0
     Eigenvalues ---    0.01891   0.01936   0.01980   0.02007   0.02033
     Eigenvalues ---    0.02041   0.02101   0.02344   0.16000   0.16000
     Eigenvalues ---    0.22466   0.24489   0.25000   0.25000   0.25000
     Eigenvalues ---    0.25000   0.33512   0.33748   0.37416   0.38251
     Eigenvalues ---    0.38557   0.40227   0.42289   0.42932   0.44869
     Eigenvalues ---    0.48554   0.49701
 RFO step:  Lambda=-7.58114014D-03 EMin= 1.89051362D-02
 Linear search not attempted -- first point.
 Iteration  1 RMS(Cart)=  0.01771510 RMS(Int)=  0.00011347
 Iteration  2 RMS(Cart)=  0.00011961 RMS(Int)=  0.00002326
 Iteration  3 RMS(Cart)=  0.00000001 RMS(Int)=  0.00002326
 ClnCor:  largest displacement from symmetrization is 5.90D-09 for atom    10.
 Variable       Old X    -DE/DX   Delta X   Delta X   Delta X     New X
                                 (Linear)    (Quad)   (Total)
    R1        2.59843  -0.00561   0.00000  -0.01060  -0.01057   2.58786
    R2        2.59718  -0.00731   0.00000  -0.01404  -0.01401   2.58317
    R3        2.68349  -0.01199   0.00000  -0.02760  -0.02760   2.65589
    R4        3.17263   0.02399   0.00000   0.06103   0.06103   3.23366
    R5        2.66210  -0.01336   0.00000  -0.03006  -0.03010   2.63201
    R6        3.18924   0.02214   0.00000   0.05799   0.05799   3.24724
    R7        2.64398  -0.01144   0.00000  -0.02505  -0.02508   2.61889
    R8        2.08162  -0.01287   0.00000  -0.03755  -0.03755   2.04406
    R9        2.67282  -0.01347   0.00000  -0.03073  -0.03073   2.64209
   R10        2.07758  -0.01075   0.00000  -0.03116  -0.03116   2.04642
   R11        3.17701   0.02593   0.00000   0.06647   0.06647   3.24348
    A1        2.24991  -0.00970   0.00000  -0.03575  -0.03567   2.21425
    A2        2.00399   0.00548   0.00000   0.02233   0.02235   2.02635
    A3        2.12822  -0.00304   0.00000  -0.01232  -0.01234   2.11589
    A4        2.15097  -0.00244   0.00000  -0.01001  -0.01002   2.14095
    A5        2.08618  -0.00074   0.00000  -0.00332  -0.00336   2.08282
    A6        2.10839   0.00011   0.00000   0.00065   0.00068   2.10906
    A7        2.08862   0.00063   0.00000   0.00267   0.00269   2.09130
    A8        2.12756  -0.00037   0.00000  -0.00340  -0.00347   2.12409
    A9        2.07838  -0.00157   0.00000  -0.00876  -0.00872   2.06966
   A10        2.07725   0.00194   0.00000   0.01215   0.01219   2.08944
   A11        2.08780   0.00107   0.00000   0.00330   0.00327   2.09107
   A12        2.09862   0.00013   0.00000   0.00229   0.00231   2.10092
   A13        2.09677  -0.00120   0.00000  -0.00559  -0.00557   2.09120
   A14        2.01093   0.00427   0.00000   0.01684   0.01687   2.02780
   A15        2.13999  -0.00280   0.00000  -0.01100  -0.01102   2.12897
   A16        2.13226  -0.00147   0.00000  -0.00584  -0.00585   2.12641
    D1       -0.00000   0.00000   0.00000   0.00000   0.00000   0.00000
    D2        3.14159   0.00000   0.00000   0.00000   0.00000   3.14159
    D3        0.00000  -0.00000   0.00000  -0.00000   0.00000   0.00000
    D4        3.14159  -0.00000   0.00000   0.00000   0.00000   3.14159
    D5        0.00000  -0.00000   0.00000  -0.00000   0.00000   0.00000
    D6        3.14159  -0.00000   0.00000  -0.00000   0.00000   3.14159
    D7        3.14159  -0.00000   0.00000  -0.00000   0.00000   3.14159
    D8       -0.00000  -0.00000   0.00000  -0.00000   0.00000   0.00000
    D9       -0.00000   0.00000   0.00000   0.00000   0.00000   0.00000
   D10        3.14159   0.00000   0.00000   0.00000   0.00000   3.14159
   D11        3.14159   0.00000   0.00000   0.00000   0.00000   3.14159
   D12        0.00000   0.00000   0.00000   0.00000   0.00000   0.00000
   D13        0.00000   0.00000   0.00000  -0.00000  -0.00000   0.00000
   D14        3.14159  -0.00000   0.00000  -0.00000   0.00000   3.14159
   D15        3.14159   0.00000   0.00000   0.00000   0.00000   3.14159
   D16        0.00000   0.00000   0.00000  -0.00000   0.00000   0.00000
   D17       -0.00000  -0.00000   0.00000  -0.00000   0.00000   0.00000
   D18        3.14159  -0.00000   0.00000  -0.00000   0.00000   3.14159
   D19        3.14159   0.00000   0.00000   0.00000   0.00000   3.14159
   D20        0.00000  -0.00000   0.00000  -0.00000  -0.00000   0.00000
         Item               Value     Threshold  Converged?
 Maximum Force            0.025928     0.000450     NO 
 RMS     Force            0.007877     0.000300     NO 
 Maximum Displacement     0.051698     0.001800     NO 
 RMS     Displacement     0.017724     0.001200     NO 
 Predicted change in Energy=-3.867007D-03
 GradGradGradGradGradGradGradGradGradGradGradGradGradGradGradGradGradGrad

                          Input orientation:                          
 ---------------------------------------------------------------------
 Center     Atomic      Atomic             Coordinates (Angstroms)
 Number     Number       Type             X           Y           Z
 ---------------------------------------------------------------------
      1          6           0       -3.071202    0.064173   -0.000000
      2          6           0       -1.952932    0.854635    0.000000
      3          6           0       -0.719499    0.180919    0.000000
      4          6           0       -0.702659   -1.211777    0.000000
      5          6           0       -1.872854   -1.954239   -0.000000
      6          6           0       -3.109656   -1.302241   -0.000000
      7         17           0       -4.590520   -2.169986   -0.000000
      8         17           0       -2.072998    2.561595    0.000000
      9         17           0        0.760856    1.053458    0.000000
     10          1           0        0.253374   -1.717754    0.000000
     11          1           0       -1.834681   -3.036483   -0.000000
 ---------------------------------------------------------------------
                    Distance matrix (angstroms):
                    1          2          3          4          5
     1  C    0.000000
     2  C    1.369437   0.000000
     3  C    2.354599   1.405436   0.000000
     4  C    2.690361   2.415211   1.392798   0.000000
     5  C    2.347343   2.810015   2.426752   1.385859   0.000000
     6  C    1.366955   2.447474   2.812937   2.408696   1.398134
     7  Cl   2.701813   4.013129   4.528969   4.004201   2.726216
     8  Cl   2.689522   1.711177   2.738536   4.014494   4.520267
     9  Cl   3.957695   2.721061   1.718364   2.696880   3.997833
    10  H    3.772011   3.388949   2.133411   1.081671   2.139339
    11  H    3.338121   3.892914   3.405188   2.147329   1.082917
                    6          7          8          9         10
     6  C    0.000000
     7  Cl   1.716374   0.000000
     8  Cl   4.000486   5.359643   0.000000
     9  Cl   4.531024   6.247224   3.210172   0.000000
    10  H    3.388602   4.864959   4.870815   2.817295   0.000000
    11  H    2.152477   2.888853   5.603148   4.844009   2.469619
                   11
    11  H    0.000000
 Stoichiometry    C6H2Cl3(2)
 Framework group  CS[SG(C6H2Cl3)]
 Deg. of freedom    19
 Full point group                 CS      NOp   2
 Largest Abelian subgroup         CS      NOp   2
 Largest concise Abelian subgroup C1      NOp   1
                         Standard orientation:                         
 ---------------------------------------------------------------------
 Center     Atomic      Atomic             Coordinates (Angstroms)
 Number     Number       Type             X           Y           Z
 ---------------------------------------------------------------------
      1          6           0        1.151425    0.118592   -0.000000
      2          6           0       -0.000000    0.859927   -0.000000
      3          6           0       -1.203127    0.133471   -0.000000
      4          6           0       -1.159689   -1.258649    0.000000
      5          6           0        0.041536   -1.949781    0.000000
      6          6           0        1.248968   -1.244879    0.000000
      7         17           0        2.765992   -2.047734    0.000000
      8         17           0        0.046094    2.570483   -0.000000
      9         17           0       -2.719849    0.941139   -0.000000
     10          1           0       -2.092934   -1.805519    0.000000
     11          1           0        0.050226   -3.032663    0.000000
 ---------------------------------------------------------------------
 Rotational constants (GHZ):           1.8669349           0.6004799           0.4543447
 Standard basis: 6-311++G(d,p) (5D, 7F)
 There are   183 symmetry adapted cartesian basis functions of A'  symmetry.
 There are    62 symmetry adapted cartesian basis functions of A"  symmetry.
 There are   174 symmetry adapted basis functions of A'  symmetry.
 There are    62 symmetry adapted basis functions of A"  symmetry.
   236 basis functions,   393 primitive gaussians,   245 cartesian basis functions
    45 alpha electrons       44 beta electrons
       nuclear repulsion energy       612.8507855871 Hartrees.
 NAtoms=   11 NActive=   11 NUniq=   11 SFac= 1.00D+00 NAtFMM=   60 NAOKFM=F Big=F
 Integral buffers will be    131072 words long.
 Raffenetti 2 integral format.
 Two-electron integral symmetry is turned on.
 One-electron integrals computed using PRISM.
 NBasis=   236 RedAO= T EigKep=  2.01D-06  NBF=   174    62
 NBsUse=   235 1.00D-06 EigRej=  9.21D-07 NBFU=   173    62
 Initial guess from the checkpoint file:  "frequency_chks/1234-1_34-ClBzNeutralRadical_Freq.chk"
 B after Tr=     0.000000   -0.000000   -0.000000
         Rot=    1.000000    0.000000   -0.000000   -0.000628 Ang=  -0.07 deg.
 Initial guess orbital symmetries:
 Alpha Orbitals:
       Occupied  (A') (A') (A') (A') (A') (A') (A') (A') (A') (A')
                 (A') (A') (A') (A') (A') (A") (A') (A") (A') (A")
                 (A') (A') (A') (A') (A') (A') (A') (A') (A') (A')
                 (A') (A') (A') (A") (A') (A') (A") (A") (A') (A')
                 (A') (A") (A') (A") (A")
       Virtual   (A") (A") (A') (A') (A') (A') (A') (A') (A") (A')
                 (A") (A') (A') (A") (A') (A') (A") (A") (A') (A')
                 (A') (A") (A') (A') (A") (A') (A") (A') (A') (A")
                 (A') (A') (A') (A") (A') (A') (A') (A') (A') (A')
                 (A') (A') (A') (A') (A') (A') (A') (A') (A') (A')
                 (A') (A") (A') (A") (A') (A') (A') (A") (A') (A")
                 (A') (A') (A') (A") (A') (A") (A") (A") (A') (A')
                 (A') (A") (A') (A') (A') (A') (A") (A') (A') (A")
                 (A') (A') (A') (A") (A') (A") (A") (A') (A') (A')
                 (A") (A') (A') (A') (A') (A") (A') (A") (A') (A')
                 (A') (A") (A') (A') (A') (A") (A') (A") (A') (A")
                 (A') (A') (A') (A') (A") (A') (A") (A') (A') (A')
                 (A') (A") (A") (A") (A') (A") (A') (A') (A') (A")
                 (A') (A') (A") (A") (A') (A") (A") (A') (A') (A')
                 (A') (A') (A') (A') (A') (A') (A') (A") (A') (A')
                 (A') (A") (A") (A") (A") (A') (A") (A') (A') (A')
                 (A') (A') (A') (A') (A') (A') (A') (A') (A') (A')
                 (A') (A') (A') (A') (A') (A') (A') (A') (A") (A")
                 (A") (A') (A') (A') (A') (A') (A') (A') (A') (A')
 Beta  Orbitals:
       Occupied  (A') (A') (A') (A') (A') (A') (A') (A') (A') (A')
                 (A') (A') (A') (A') (A') (A") (A') (A") (A') (A")
                 (A') (A') (A') (A') (A') (A') (A') (A') (A') (A')
                 (A') (A') (A') (A") (A') (A') (A") (A") (A') (A')
                 (A") (A') (A") (A")
       Virtual   (A') (A") (A") (A') (A') (A') (A') (A') (A') (A")
                 (A') (A") (A') (A") (A') (A') (A') (A") (A') (A")
                 (A') (A') (A") (A') (A') (A") (A') (A') (A") (A')
                 (A") (A') (A') (A') (A") (A') (A') (A') (A') (A')
                 (A') (A') (A') (A') (A') (A') (A') (A') (A') (A')
                 (A') (A') (A') (A") (A") (A') (A') (A") (A') (A')
                 (A') (A") (A') (A') (A") (A') (A") (A") (A") (A')
                 (A') (A") (A') (A') (A') (A') (A') (A") (A') (A')
                 (A") (A') (A') (A') (A") (A') (A") (A") (A') (A')
                 (A') (A") (A') (A') (A') (A') (A") (A') (A") (A')
                 (A') (A') (A') (A") (A') (A') (A") (A') (A') (A")
                 (A") (A') (A') (A') (A") (A') (A') (A") (A') (A')
                 (A') (A') (A") (A") (A") (A') (A") (A') (A') (A')
                 (A") (A') (A') (A") (A") (A') (A") (A") (A') (A')
                 (A') (A') (A') (A') (A') (A') (A') (A') (A") (A')
                 (A') (A') (A") (A") (A") (A") (A') (A") (A') (A')
                 (A') (A') (A') (A') (A') (A') (A') (A') (A') (A')
                 (A') (A') (A') (A') (A') (A') (A') (A') (A') (A")
                 (A") (A") (A') (A') (A') (A') (A') (A') (A') (A')
                 (A')
 Initial guess <Sx>= 0.0000 <Sy>= 0.0000 <Sz>= 0.5000 <S**2>= 0.7632 S= 0.5066
 ExpMin= 3.60D-02 ExpMax= 1.06D+05 ExpMxC= 3.62D+03 IAcc=3 IRadAn=         5 AccDes= 0.00D+00
 Harris functional with IExCor= 1009 and IRadAn=       5 diagonalized for initial guess.
 HarFok:  IExCor= 1009 AccDes= 0.00D+00 IRadAn=         5 IDoV= 1 UseB2=F ITyADJ=14
 ICtDFT=  3500011 ScaDFX=  1.000000  1.000000  1.000000  1.000000
 FoFCou: FMM=F IPFlag=           0 FMFlag=      100000 FMFlg1=           0
         NFxFlg=           0 DoJE=T BraDBF=F KetDBF=T FulRan=T
         wScrn=  0.000000 ICntrl=       500 IOpCl=  0 I1Cent=   200000004 NGrid=           0
         NMat0=    1 NMatS0=      1 NMatT0=    0 NMatD0=    1 NMtDS0=    0 NMtDT0=    0
 Petite list used in FoFCou.
 Keep R1 and R2 ints in memory in symmetry-blocked form, NReq=617299900.
 Requested convergence on RMS density matrix=1.00D-08 within 128 cycles.
 Requested convergence on MAX density matrix=1.00D-06.
 Requested convergence on             energy=1.00D-06.
 No special actions if energy rises.
 SCF Done:  E(UM062X) =  -1610.30398055     A.U. after   16 cycles
            NFock= 16  Conv=0.97D-08     -V/T= 2.0023
 <Sx>= 0.0000 <Sy>= 0.0000 <Sz>= 0.5000 <S**2>= 0.7629 S= 0.5064
 <L.S>=  0.00000000000    
 Annihilation of the first spin contaminant:
 S**2 before annihilation     0.7629,   after     0.7501
 Calling FoFJK, ICntrl=      2127 FMM=F ISym2X=1 I1Cent= 0 IOpClX= 1 NMat=1 NMatS=1 NMatT=0.
 ***** Axes restored to original set *****
 -------------------------------------------------------------------
 Center     Atomic                   Forces (Hartrees/Bohr)
 Number     Number              X              Y              Z
 -------------------------------------------------------------------
      1        6          -0.005523672    0.003484218   -0.000000000
      2        6           0.004867295   -0.012070841   -0.000000000
      3        6          -0.008358042   -0.000724774   -0.000000000
      4        6           0.002618870    0.000416059    0.000000000
      5        6          -0.003988712   -0.001750751   -0.000000000
      6        6           0.013168800    0.004598758    0.000000000
      7       17          -0.006470318   -0.003560624   -0.000000000
      8       17          -0.001241950    0.007410210    0.000000000
      9       17           0.004684599    0.002440219    0.000000000
     10        1           0.000448926   -0.000013491    0.000000000
     11        1          -0.000205795   -0.000228983   -0.000000000
 -------------------------------------------------------------------
 Cartesian Forces:  Max     0.013168800 RMS     0.004411399

 GradGradGradGradGradGradGradGradGradGradGradGradGradGradGradGradGradGrad
 Berny optimization.
 Using GEDIIS/GDIIS optimizer.
 FormGI is forming the generalized inverse of G from B-inverse, IUseBI=4.
 Internal  Forces:  Max     0.007478900 RMS     0.002108631
 Search for a local minimum.
 Step number   2 out of a maximum of   57
 All quantities printed in internal units (Hartrees-Bohrs-Radians)
 Mixed Optimization -- RFO/linear search
 Update second derivatives using D2CorX and points    1    2
 DE= -4.59D-03 DEPred=-3.87D-03 R= 1.19D+00
 TightC=F SS=  1.41D+00  RLast= 1.42D-01 DXNew= 5.0454D-01 4.2642D-01
 Trust test= 1.19D+00 RLast= 1.42D-01 DXMaxT set to 4.26D-01
 ITU=  1  0
 Use linear search instead of GDIIS.
     Eigenvalues ---    0.01891   0.01935   0.01980   0.02007   0.02033
     Eigenvalues ---    0.02042   0.02101   0.02339   0.15975   0.16004
     Eigenvalues ---    0.21027   0.22514   0.24771   0.25000   0.25000
     Eigenvalues ---    0.25070   0.32405   0.33646   0.34802   0.37694
     Eigenvalues ---    0.38429   0.40155   0.42597   0.43783   0.44987
     Eigenvalues ---    0.49567   0.50197
 RFO step:  Lambda=-4.33199865D-04 EMin= 1.89062962D-02
 Quartic linear search produced a step of  0.28615.
 Iteration  1 RMS(Cart)=  0.00648249 RMS(Int)=  0.00004679
 Iteration  2 RMS(Cart)=  0.00006018 RMS(Int)=  0.00001861
 Iteration  3 RMS(Cart)=  0.00000000 RMS(Int)=  0.00001861
 ClnCor:  largest displacement from symmetrization is 1.35D-09 for atom    10.
 Variable       Old X    -DE/DX   Delta X   Delta X   Delta X     New X
                                 (Linear)    (Quad)   (Total)
    R1        2.58786  -0.00049  -0.00302   0.00089  -0.00211   2.58575
    R2        2.58317   0.00028  -0.00401   0.00381  -0.00017   2.58300
    R3        2.65589  -0.00254  -0.00790  -0.00157  -0.00947   2.64642
    R4        3.23366   0.00748   0.01746   0.01098   0.02844   3.26210
    R5        2.63201   0.00017  -0.00861   0.00750  -0.00114   2.63086
    R6        3.24724   0.00527   0.01660   0.00486   0.02146   3.26869
    R7        2.61889   0.00150  -0.00718   0.01025   0.00305   2.62195
    R8        2.04406   0.00040  -0.01075   0.01012  -0.00063   2.04343
    R9        2.64209  -0.00178  -0.00879   0.00194  -0.00685   2.63525
   R10        2.04642   0.00022  -0.00892   0.00796  -0.00096   2.04546
   R11        3.24348   0.00738   0.01902   0.00961   0.02863   3.27211
    A1        2.21425  -0.00430  -0.01021  -0.01466  -0.02480   2.18945
    A2        2.02635   0.00228   0.00640   0.00601   0.01243   2.03877
    A3        2.11589  -0.00231  -0.00353  -0.00875  -0.01229   2.10360
    A4        2.14095   0.00003  -0.00287   0.00274  -0.00014   2.14081
    A5        2.08282   0.00108  -0.00096   0.00648   0.00549   2.08830
    A6        2.10906  -0.00010   0.00019  -0.00074  -0.00053   2.10853
    A7        2.09130  -0.00098   0.00077  -0.00574  -0.00495   2.08635
    A8        2.12409  -0.00165  -0.00099  -0.00759  -0.00863   2.11546
    A9        2.06966   0.00062  -0.00250   0.00451   0.00204   2.07170
   A10        2.08944   0.00103   0.00349   0.00308   0.00659   2.09603
   A11        2.09107  -0.00113   0.00093  -0.00593  -0.00502   2.08605
   A12        2.10092   0.00078   0.00066   0.00380   0.00447   2.10539
   A13        2.09120   0.00035  -0.00160   0.00213   0.00055   2.09175
   A14        2.02780   0.00372   0.00483   0.01568   0.02054   2.04834
   A15        2.12897  -0.00217  -0.00315  -0.00887  -0.01204   2.11693
   A16        2.12641  -0.00154  -0.00168  -0.00681  -0.00850   2.11791
    D1        0.00000  -0.00000   0.00000  -0.00000   0.00000   0.00000
    D2        3.14159   0.00000   0.00000   0.00000   0.00000   3.14159
    D3       -0.00000  -0.00000   0.00000  -0.00000   0.00000   0.00000
    D4        3.14159  -0.00000   0.00000  -0.00000   0.00000   3.14159
    D5       -0.00000   0.00000   0.00000   0.00000   0.00000   0.00000
    D6        3.14159   0.00000   0.00000   0.00000   0.00000   3.14159
    D7        3.14159   0.00000   0.00000   0.00000   0.00000   3.14159
    D8       -0.00000   0.00000   0.00000   0.00000   0.00000   0.00000
    D9        0.00000  -0.00000   0.00000  -0.00000   0.00000   0.00000
   D10        3.14159  -0.00000   0.00000  -0.00000   0.00000   3.14159
   D11        3.14159  -0.00000   0.00000  -0.00000   0.00000   3.14159
   D12        0.00000  -0.00000   0.00000  -0.00000  -0.00000   0.00000
   D13       -0.00000  -0.00000   0.00000  -0.00000   0.00000   0.00000
   D14        3.14159   0.00000   0.00000   0.00000   0.00000   3.14159
   D15        3.14159  -0.00000   0.00000  -0.00000   0.00000   3.14159
   D16        0.00000  -0.00000   0.00000  -0.00000   0.00000   0.00000
   D17        0.00000   0.00000   0.00000   0.00000   0.00000   0.00000
   D18        3.14159   0.00000   0.00000   0.00000   0.00000   3.14159
   D19        3.14159   0.00000   0.00000   0.00000   0.00000   3.14159
   D20       -0.00000   0.00000   0.00000   0.00000   0.00000   0.00000
         Item               Value     Threshold  Converged?
 Maximum Force            0.007479     0.000450     NO 
 RMS     Force            0.002109     0.000300     NO 
 Maximum Displacement     0.017384     0.001800     NO 
 RMS     Displacement     0.006479     0.001200     NO 
 Predicted change in Energy=-4.408904D-04
 GradGradGradGradGradGradGradGradGradGradGradGradGradGradGradGradGradGrad

                          Input orientation:                          
 ---------------------------------------------------------------------
 Center     Atomic      Atomic             Coordinates (Angstroms)
 Number     Number       Type             X           Y           Z
 ---------------------------------------------------------------------
      1          6           0       -3.079847    0.070260   -0.000000
      2          6           0       -1.953291    0.846905    0.000000
      3          6           0       -0.723797    0.176432    0.000000
      4          6           0       -0.698374   -1.215528    0.000000
      5          6           0       -1.871759   -1.955968   -0.000000
      6          6           0       -3.100457   -1.296449   -0.000000
      7         17           0       -4.593501   -2.173372   -0.000000
      8         17           0       -2.075355    2.568811    0.000000
      9         17           0        0.765269    1.056550    0.000000
     10          1           0        0.259445   -1.717399    0.000000
     11          1           0       -1.841103   -3.037942   -0.000000
 ---------------------------------------------------------------------
                    Distance matrix (angstroms):
                    1          2          3          4          5
     1  C    0.000000
     2  C    1.368322   0.000000
     3  C    2.358440   1.400425   0.000000
     4  C    2.706411   2.414218   1.392192   0.000000
     5  C    2.359041   2.804058   2.421765   1.387474   0.000000
     6  C    1.366864   2.431040   2.796049   2.403445   1.394512
     7  Cl   2.706480   4.011581   4.527272   4.011169   2.730411
     8  Cl   2.692909   1.726227   2.747760   4.027070   4.529357
     9  Cl   3.969595   2.726632   1.729719   2.702701   4.003646
    10  H    3.787689   3.387013   2.133861   1.081338   2.144515
    11  H    3.345954   3.886467   3.403024   2.151051   1.082409
                    6          7          8          9         10
     6  C    0.000000
     7  Cl   1.731524   0.000000
     8  Cl   3.998883   5.369298   0.000000
     9  Cl   4.525533   6.256902   3.218086   0.000000
    10  H    3.386169   4.874320   4.880869   2.819690   0.000000
    11  H    2.149133   2.884992   5.611645   4.853663   2.481156
                   11
    11  H    0.000000
 Stoichiometry    C6H2Cl3(2)
 Framework group  CS[SG(C6H2Cl3)]
 Deg. of freedom    19
 Full point group                 CS      NOp   2
 Largest Abelian subgroup         CS      NOp   2
 Largest concise Abelian subgroup C1      NOp   1
                         Standard orientation:                         
 ---------------------------------------------------------------------
 Center     Atomic      Atomic             Coordinates (Angstroms)
 Number     Number       Type             X           Y           Z
 ---------------------------------------------------------------------
      1          6           0        1.159651    0.124997    0.000000
      2          6           0       -0.000000    0.851299    0.000000
      3          6           0       -1.198789    0.127354    0.000000
      4          6           0       -1.162914   -1.264375   -0.000000
      5          6           0        0.041927   -1.952446   -0.000000
      6          6           0        1.240403   -1.239480   -0.000000
      7         17           0        2.770601   -2.049831   -0.000000
      8         17           0        0.046148    2.576909    0.000000
      9         17           0       -2.725154    0.941072    0.000000
     10          1           0       -2.097713   -1.807923   -0.000000
     11          1           0        0.058928   -3.034721   -0.000000
 ---------------------------------------------------------------------
 Rotational constants (GHZ):           1.8570546           0.5991600           0.4530031
 Standard basis: 6-311++G(d,p) (5D, 7F)
 There are   183 symmetry adapted cartesian basis functions of A'  symmetry.
 There are    62 symmetry adapted cartesian basis functions of A"  symmetry.
 There are   174 symmetry adapted basis functions of A'  symmetry.
 There are    62 symmetry adapted basis functions of A"  symmetry.
   236 basis functions,   393 primitive gaussians,   245 cartesian basis functions
    45 alpha electrons       44 beta electrons
       nuclear repulsion energy       611.6457223374 Hartrees.
 NAtoms=   11 NActive=   11 NUniq=   11 SFac= 1.00D+00 NAtFMM=   60 NAOKFM=F Big=F
 Integral buffers will be    131072 words long.
 Raffenetti 2 integral format.
 Two-electron integral symmetry is turned on.
 One-electron integrals computed using PRISM.
 NBasis=   236 RedAO= T EigKep=  2.01D-06  NBF=   174    62
 NBsUse=   235 1.00D-06 EigRej=  9.48D-07 NBFU=   173    62
 Initial guess from the checkpoint file:  "frequency_chks/1234-1_34-ClBzNeutralRadical_Freq.chk"
 B after Tr=     0.000000    0.000000    0.000000
         Rot=    1.000000   -0.000000    0.000000   -0.000226 Ang=  -0.03 deg.
 Initial guess orbital symmetries:
 Alpha Orbitals:
       Occupied  (A') (A') (A') (A') (A') (A') (A') (A') (A') (A')
                 (A') (A') (A') (A') (A') (A") (A') (A') (A") (A")
                 (A') (A') (A') (A') (A') (A') (A') (A') (A') (A')
                 (A') (A') (A') (A") (A') (A') (A") (A") (A') (A')
                 (A") (A') (A') (A") (A")
       Virtual   (A") (A") (A') (A') (A') (A') (A') (A') (A") (A')
                 (A') (A") (A') (A") (A') (A') (A") (A') (A") (A')
                 (A') (A') (A") (A') (A') (A") (A') (A") (A') (A')
                 (A") (A') (A') (A") (A') (A') (A') (A') (A') (A')
                 (A') (A') (A') (A') (A') (A') (A') (A') (A') (A')
                 (A') (A') (A") (A") (A') (A') (A') (A") (A') (A")
                 (A') (A') (A') (A") (A') (A") (A") (A") (A') (A')
                 (A") (A') (A') (A') (A') (A') (A") (A') (A') (A")
                 (A') (A') (A') (A') (A") (A") (A") (A') (A') (A')
                 (A") (A') (A') (A') (A') (A") (A') (A") (A') (A')
                 (A') (A") (A') (A') (A') (A") (A') (A") (A") (A')
                 (A') (A') (A') (A') (A") (A') (A") (A') (A') (A')
                 (A') (A") (A") (A") (A') (A") (A') (A') (A') (A")
                 (A') (A') (A") (A') (A") (A") (A") (A') (A') (A')
                 (A') (A') (A') (A') (A') (A') (A") (A') (A') (A')
                 (A') (A") (A") (A") (A") (A') (A") (A') (A') (A')
                 (A') (A') (A') (A') (A') (A') (A') (A') (A') (A')
                 (A') (A') (A') (A') (A') (A') (A') (A') (A") (A")
                 (A") (A') (A') (A') (A') (A') (A') (A') (A') (A')
 Beta  Orbitals:
       Occupied  (A') (A') (A') (A') (A') (A') (A') (A') (A') (A')
                 (A') (A') (A') (A') (A') (A") (A') (A") (A') (A")
                 (A') (A') (A') (A') (A') (A') (A') (A') (A') (A')
                 (A') (A') (A') (A") (A') (A') (A") (A") (A') (A')
                 (A") (A') (A") (A")
       Virtual   (A') (A") (A") (A') (A') (A') (A') (A') (A') (A")
                 (A') (A") (A') (A") (A') (A') (A') (A") (A') (A")
                 (A') (A') (A") (A') (A') (A") (A') (A') (A') (A")
                 (A') (A") (A') (A') (A") (A') (A') (A') (A') (A')
                 (A') (A') (A') (A') (A') (A') (A') (A') (A') (A')
                 (A') (A') (A') (A") (A") (A') (A') (A') (A") (A')
                 (A') (A") (A') (A') (A") (A') (A") (A") (A") (A')
                 (A') (A") (A') (A') (A') (A') (A') (A") (A') (A')
                 (A') (A") (A') (A') (A') (A") (A") (A") (A') (A')
                 (A') (A") (A') (A') (A') (A') (A") (A') (A") (A')
                 (A') (A') (A') (A") (A') (A') (A") (A') (A") (A')
                 (A") (A') (A') (A') (A') (A") (A') (A") (A') (A')
                 (A') (A') (A") (A") (A") (A') (A") (A') (A') (A')
                 (A") (A') (A') (A") (A') (A") (A") (A") (A') (A')
                 (A') (A') (A') (A') (A') (A') (A') (A") (A') (A')
                 (A') (A') (A") (A") (A") (A") (A') (A") (A') (A')
                 (A') (A') (A') (A') (A') (A') (A') (A') (A') (A')
                 (A') (A') (A') (A') (A') (A') (A') (A') (A') (A")
                 (A") (A") (A') (A') (A') (A') (A') (A') (A') (A')
                 (A')
 Initial guess <Sx>= 0.0000 <Sy>= 0.0000 <Sz>= 0.5000 <S**2>= 0.7629 S= 0.5064
 Keep R1 and R2 ints in memory in symmetry-blocked form, NReq=617299900.
 Requested convergence on RMS density matrix=1.00D-08 within 128 cycles.
 Requested convergence on MAX density matrix=1.00D-06.
 Requested convergence on             energy=1.00D-06.
 No special actions if energy rises.
 SCF Done:  E(UM062X) =  -1610.30448293     A.U. after   15 cycles
            NFock= 15  Conv=0.59D-08     -V/T= 2.0023
 <Sx>= 0.0000 <Sy>= 0.0000 <Sz>= 0.5000 <S**2>= 0.7630 S= 0.5065
 <L.S>=  0.00000000000    
 Annihilation of the first spin contaminant:
 S**2 before annihilation     0.7630,   after     0.7501
 Calling FoFJK, ICntrl=      2127 FMM=F ISym2X=1 I1Cent= 0 IOpClX= 1 NMat=1 NMatS=1 NMatT=0.
 ***** Axes restored to original set *****
 -------------------------------------------------------------------
 Center     Atomic                   Forces (Hartrees/Bohr)
 Number     Number              X              Y              Z
 -------------------------------------------------------------------
      1        6          -0.001752293    0.000355001   -0.000000000
      2        6           0.001562262   -0.000772057    0.000000000
      3        6          -0.000724996    0.000813974    0.000000000
      4        6           0.000615368    0.000360315    0.000000000
      5        6          -0.001086948   -0.000694025   -0.000000000
      6        6           0.002202110    0.000518125    0.000000000
      7       17          -0.000978384   -0.000448577   -0.000000000
      8       17          -0.000175804    0.000587141    0.000000000
      9       17          -0.000003372   -0.000088294   -0.000000000
     10        1           0.000434829   -0.000249071    0.000000000
     11        1          -0.000092771   -0.000382531   -0.000000000
 -------------------------------------------------------------------
 Cartesian Forces:  Max     0.002202110 RMS     0.000710501

 GradGradGradGradGradGradGradGradGradGradGradGradGradGradGradGradGradGrad
 Berny optimization.
 Using GEDIIS/GDIIS optimizer.
 FormGI is forming the generalized inverse of G from B-inverse, IUseBI=4.
 Internal  Forces:  Max     0.001071054 RMS     0.000366903
 Search for a local minimum.
 Step number   3 out of a maximum of   57
 All quantities printed in internal units (Hartrees-Bohrs-Radians)
 Mixed Optimization -- En-DIIS/RFO-DIIS
 Update second derivatives using D2CorX and points    1    2    3
 DE= -5.02D-04 DEPred=-4.41D-04 R= 1.14D+00
 TightC=F SS=  1.41D+00  RLast= 6.34D-02 DXNew= 7.1715D-01 1.9030D-01
 Trust test= 1.14D+00 RLast= 6.34D-02 DXMaxT set to 4.26D-01
 ITU=  1  1  0
 Use linear search instead of GDIIS.
     Eigenvalues ---    0.01890   0.01935   0.01980   0.02006   0.02032
     Eigenvalues ---    0.02042   0.02100   0.02335   0.15867   0.16009
     Eigenvalues ---    0.18266   0.22492   0.24785   0.25000   0.25007
     Eigenvalues ---    0.25066   0.32231   0.33651   0.35011   0.37759
     Eigenvalues ---    0.38472   0.40121   0.42555   0.43909   0.45013
     Eigenvalues ---    0.49711   0.50877
 RFO step:  Lambda=-9.44855248D-06 EMin= 1.89040282D-02
 Quartic linear search produced a step of  0.14591.
 Iteration  1 RMS(Cart)=  0.00136009 RMS(Int)=  0.00000283
 Iteration  2 RMS(Cart)=  0.00000270 RMS(Int)=  0.00000226
 Iteration  3 RMS(Cart)=  0.00000000 RMS(Int)=  0.00000226
 ClnCor:  largest displacement from symmetrization is 1.11D-09 for atom    10.
 Variable       Old X    -DE/DX   Delta X   Delta X   Delta X     New X
                                 (Linear)    (Quad)   (Total)
    R1        2.58575   0.00079  -0.00031   0.00186   0.00156   2.58731
    R2        2.58300   0.00035  -0.00003   0.00062   0.00060   2.58359
    R3        2.64642  -0.00047  -0.00138  -0.00052  -0.00191   2.64451
    R4        3.26210   0.00060   0.00415  -0.00080   0.00335   3.26545
    R5        2.63086   0.00054  -0.00017   0.00113   0.00096   2.63182
    R6        3.26869  -0.00005   0.00313  -0.00191   0.00122   3.26991
    R7        2.62195   0.00098   0.00045   0.00176   0.00220   2.62415
    R8        2.04343   0.00050  -0.00009   0.00126   0.00117   2.04460
    R9        2.63525  -0.00018  -0.00100  -0.00002  -0.00102   2.63422
   R10        2.04546   0.00038  -0.00014   0.00097   0.00083   2.04628
   R11        3.27211   0.00107   0.00418   0.00067   0.00485   3.27695
    A1        2.18945  -0.00073  -0.00362  -0.00093  -0.00454   2.18492
    A2        2.03877   0.00028   0.00181   0.00001   0.00183   2.04060
    A3        2.10360  -0.00037  -0.00179  -0.00035  -0.00214   2.10146
    A4        2.14081   0.00009  -0.00002   0.00034   0.00032   2.14113
    A5        2.08830   0.00025   0.00080   0.00044   0.00124   2.08954
    A6        2.10853  -0.00001  -0.00008   0.00000  -0.00007   2.10846
    A7        2.08635  -0.00023  -0.00072  -0.00045  -0.00117   2.08518
    A8        2.11546  -0.00020  -0.00126   0.00013  -0.00114   2.11432
    A9        2.07170   0.00011   0.00030   0.00015   0.00045   2.07215
   A10        2.09603   0.00009   0.00096  -0.00028   0.00069   2.09672
   A11        2.08605  -0.00040  -0.00073  -0.00117  -0.00190   2.08414
   A12        2.10539   0.00030   0.00065   0.00112   0.00178   2.10717
   A13        2.09175   0.00010   0.00008   0.00005   0.00013   2.09187
   A14        2.04834   0.00079   0.00300   0.00151   0.00451   2.05285
   A15        2.11693  -0.00056  -0.00176  -0.00133  -0.00309   2.11384
   A16        2.11791  -0.00023  -0.00124  -0.00018  -0.00142   2.11649
    D1       -0.00000   0.00000   0.00000   0.00000   0.00000   0.00000
    D2        3.14159   0.00000   0.00000   0.00000   0.00000   3.14159
    D3        0.00000  -0.00000   0.00000   0.00000   0.00000   0.00000
    D4        3.14159   0.00000   0.00000   0.00000   0.00000   3.14159
    D5        0.00000  -0.00000   0.00000  -0.00000   0.00000   0.00000
    D6        3.14159  -0.00000   0.00000  -0.00000   0.00000   3.14159
    D7        3.14159  -0.00000   0.00000  -0.00000   0.00000   3.14159
    D8        0.00000  -0.00000   0.00000  -0.00000  -0.00000   0.00000
    D9        0.00000  -0.00000   0.00000   0.00000  -0.00000   0.00000
   D10        3.14159  -0.00000   0.00000   0.00000   0.00000   3.14159
   D11        3.14159   0.00000   0.00000   0.00000   0.00000   3.14159
   D12       -0.00000   0.00000   0.00000   0.00000   0.00000   0.00000
   D13       -0.00000   0.00000   0.00000   0.00000   0.00000   0.00000
   D14        3.14159   0.00000   0.00000  -0.00000   0.00000   3.14159
   D15        3.14159   0.00000   0.00000   0.00000   0.00000   3.14159
   D16        0.00000   0.00000   0.00000   0.00000   0.00000   0.00000
   D17        0.00000  -0.00000   0.00000  -0.00000   0.00000   0.00000
   D18        3.14159  -0.00000   0.00000  -0.00000   0.00000   3.14159
[...]
      7       17          -0.000135461   -0.000020779   -0.000000000
      8       17          -0.000012372   -0.000196155   -0.000000000
      9       17          -0.000228900   -0.000171358   -0.000000000
     10        1           0.000031379   -0.000032270    0.000000000
     11        1          -0.000011800   -0.000018005   -0.000000000
 -------------------------------------------------------------------
 Cartesian Forces:  Max     0.000320403 RMS     0.000133963
 FormGI is forming the generalized inverse of G from B-inverse, IUseBI=4.

 GradGradGradGradGradGradGradGradGradGradGradGradGradGradGradGradGradGrad
 Berny optimization.
 Internal  Forces:  Max     0.000284656 RMS     0.000072170
 Search for a local minimum.
 Step number   1 out of a maximum of    2
 All quantities printed in internal units (Hartrees-Bohrs-Radians)
 Second derivative matrix not updated -- analytic derivatives used.
 ITU=  0
     Eigenvalues ---    0.01647   0.01794   0.01817   0.02346   0.02755
     Eigenvalues ---    0.02973   0.03723   0.03871   0.10992   0.11789
     Eigenvalues ---    0.14649   0.15906   0.17166   0.17876   0.18690
     Eigenvalues ---    0.21329   0.25335   0.26958   0.29359   0.30951
     Eigenvalues ---    0.36712   0.37011   0.43164   0.44438   0.48230
     Eigenvalues ---    0.49637   0.52874
 Angle between quadratic step and forces=  15.71 degrees.
 Linear search not attempted -- first point.
 Iteration  1 RMS(Cart)=  0.00031460 RMS(Int)=  0.00000007
 Iteration  2 RMS(Cart)=  0.00000009 RMS(Int)=  0.00000002
 ClnCor:  largest displacement from symmetrization is 1.25D-10 for atom    10.
 Variable       Old X    -DE/DX   Delta X   Delta X   Delta X     New X
                                 (Linear)    (Quad)   (Total)
    R1        2.58731   0.00017   0.00000   0.00055   0.00055   2.58787
    R2        2.58359  -0.00003   0.00000  -0.00017  -0.00017   2.58342
    R3        2.64451   0.00003   0.00000   0.00001   0.00001   2.64453
    R4        3.26545  -0.00020   0.00000  -0.00081  -0.00081   3.26464
    R5        2.63182   0.00009   0.00000   0.00031   0.00031   2.63213
    R6        3.26991  -0.00028   0.00000  -0.00111  -0.00111   3.26880
    R7        2.62415   0.00002   0.00000  -0.00001  -0.00001   2.62414
    R8        2.04460   0.00004   0.00000   0.00012   0.00012   2.04472
    R9        2.63422   0.00002   0.00000  -0.00002  -0.00002   2.63421
   R10        2.04628   0.00002   0.00000   0.00001   0.00001   2.04630
   R11        3.27695   0.00013   0.00000   0.00077   0.00077   3.27772
    A1        2.18492  -0.00010   0.00000  -0.00056  -0.00056   2.18436
    A2        2.04060  -0.00001   0.00000   0.00000   0.00000   2.04060
    A3        2.10146  -0.00005   0.00000  -0.00026  -0.00026   2.10120
    A4        2.14113   0.00006   0.00000   0.00025   0.00025   2.14138
    A5        2.08954   0.00002   0.00000   0.00008   0.00008   2.08962
    A6        2.10846   0.00003   0.00000   0.00011   0.00011   2.10857
    A7        2.08518  -0.00005   0.00000  -0.00018  -0.00018   2.08500
    A8        2.11432   0.00001   0.00000   0.00017   0.00017   2.11448
    A9        2.07215   0.00000   0.00000  -0.00011  -0.00011   2.07204
   A10        2.09672  -0.00001   0.00000  -0.00006  -0.00006   2.09666
   A11        2.08414  -0.00007   0.00000  -0.00055  -0.00055   2.08360
   A12        2.10717   0.00004   0.00000   0.00037   0.00037   2.10754
   A13        2.09187   0.00003   0.00000   0.00018   0.00018   2.09205
   A14        2.05285   0.00014   0.00000   0.00086   0.00086   2.05371
   A15        2.11384  -0.00014   0.00000  -0.00086  -0.00086   2.11298
   A16        2.11649  -0.00000   0.00000   0.00000   0.00000   2.11650
    D1       -0.00000  -0.00000   0.00000   0.00000   0.00000   0.00000
    D2        3.14159  -0.00000   0.00000   0.00000   0.00000   3.14159
    D3        0.00000  -0.00000   0.00000  -0.00000  -0.00000   0.00000
    D4        3.14159  -0.00000   0.00000  -0.00000   0.00000   3.14159
    D5        0.00000   0.00000   0.00000  -0.00000   0.00000   0.00000
    D6        3.14159   0.00000   0.00000  -0.00000   0.00000   3.14159
    D7        3.14159   0.00000   0.00000  -0.00000   0.00000   3.14159
    D8        0.00000   0.00000   0.00000  -0.00000  -0.00000   0.00000
    D9        0.00000  -0.00000   0.00000   0.00000  -0.00000   0.00000
   D10        3.14159  -0.00000   0.00000   0.00000   0.00000   3.14159
   D11        3.14159  -0.00000   0.00000   0.00000   0.00000   3.14159
   D12       -0.00000  -0.00000   0.00000   0.00000   0.00000   0.00000
   D13       -0.00000  -0.00000   0.00000  -0.00000   0.00000   0.00000
   D14        3.14159  -0.00000   0.00000  -0.00000   0.00000   3.14159
   D15        3.14159  -0.00000   0.00000  -0.00000   0.00000   3.14159
   D16        0.00000  -0.00000   0.00000  -0.00000   0.00000   0.00000
   D17        0.00000   0.00000   0.00000   0.00000   0.00000   0.00000
   D18        3.14159   0.00000   0.00000   0.00000   0.00000   3.14159
   D19        3.14159   0.00000   0.00000   0.00000   0.00000   3.14159
   D20        0.00000   0.00000   0.00000   0.00000   0.00000   0.00000
         Item               Value     Threshold  Converged?
 Maximum Force            0.000285     0.000450     YES
 RMS     Force            0.000072     0.000300     YES
 Maximum Displacement     0.000923     0.001800     YES
 RMS     Displacement     0.000315     0.001200     YES
 Predicted change in Energy=-5.541071D-07
 Optimization completed.
    -- Stationary point found.
                           ----------------------------
                           !   Optimized Parameters   !
                           ! (Angstroms and Degrees)  !
 --------------------------                            --------------------------
 ! Name  Definition              Value          Derivative Info.                !
 --------------------------------------------------------------------------------
 ! R1    R(1,2)                  1.3691         -DE/DX =    0.0002              !
 ! R2    R(1,6)                  1.3672         -DE/DX =    0.0                 !
 ! R3    R(2,3)                  1.3994         -DE/DX =    0.0                 !
 ! R4    R(2,8)                  1.728          -DE/DX =   -0.0002              !
 ! R5    R(3,4)                  1.3927         -DE/DX =    0.0001              !
 ! R6    R(3,9)                  1.7304         -DE/DX =   -0.0003              !
 ! R7    R(4,5)                  1.3886         -DE/DX =    0.0                 !
 ! R8    R(4,10)                 1.082          -DE/DX =    0.0                 !
 ! R9    R(5,6)                  1.394          -DE/DX =    0.0                 !
 ! R10   R(5,11)                 1.0828         -DE/DX =    0.0                 !
 ! R11   R(6,7)                  1.7341         -DE/DX =    0.0001              !
 ! A1    A(2,1,6)              125.1864         -DE/DX =   -0.0001              !
 ! A2    A(1,2,3)              116.9176         -DE/DX =    0.0                 !
 ! A3    A(1,2,8)              120.4047         -DE/DX =   -0.0001              !
 ! A4    A(3,2,8)              122.6777         -DE/DX =    0.0001              !
 ! A5    A(2,3,4)              119.7221         -DE/DX =    0.0                 !
 ! A6    A(2,3,9)              120.8058         -DE/DX =    0.0                 !
 ! A7    A(4,3,9)              119.4721         -DE/DX =    0.0                 !
 ! A8    A(3,4,5)              121.1415         -DE/DX =    0.0                 !
 ! A9    A(3,4,10)             118.7255         -DE/DX =    0.0                 !
 ! A10   A(5,4,10)             120.133          -DE/DX =    0.0                 !
 ! A11   A(4,5,6)              119.4127         -DE/DX =   -0.0001              !
 ! A12   A(4,5,11)             120.7319         -DE/DX =    0.0                 !
 ! A13   A(6,5,11)             119.8555         -DE/DX =    0.0                 !
 ! A14   A(1,6,5)              117.6198         -DE/DX =    0.0001              !
 ! A15   A(1,6,7)              121.1142         -DE/DX =   -0.0001              !
 ! A16   A(5,6,7)              121.266          -DE/DX =    0.0                 !
 ! D1    D(6,1,2,3)              0.0            -DE/DX =    0.0                 !
 ! D2    D(6,1,2,8)            180.0            -DE/DX =    0.0                 !
 ! D3    D(2,1,6,5)              0.0            -DE/DX =    0.0                 !
 ! D4    D(2,1,6,7)            180.0            -DE/DX =    0.0                 !
 ! D5    D(1,2,3,4)              0.0            -DE/DX =    0.0                 !
 ! D6    D(1,2,3,9)            180.0            -DE/DX =    0.0                 !
 ! D7    D(8,2,3,4)            180.0            -DE/DX =    0.0                 !
 ! D8    D(8,2,3,9)              0.0            -DE/DX =    0.0                 !
 ! D9    D(2,3,4,5)              0.0            -DE/DX =    0.0                 !
 ! D10   D(2,3,4,10)           180.0            -DE/DX =    0.0                 !
 ! D11   D(9,3,4,5)            180.0            -DE/DX =    0.0                 !
 ! D12   D(9,3,4,10)             0.0            -DE/DX =    0.0                 !
 ! D13   D(3,4,5,6)              0.0            -DE/DX =    0.0                 !
 ! D14   D(3,4,5,11)           180.0            -DE/DX =    0.0                 !
 ! D15   D(10,4,5,6)           180.0            -DE/DX =    0.0                 !
 ! D16   D(10,4,5,11)            0.0            -DE/DX =    0.0                 !
 ! D17   D(4,5,6,1)              0.0            -DE/DX =    0.0                 !
 ! D18   D(4,5,6,7)            180.0            -DE/DX =    0.0                 !
 ! D19   D(11,5,6,1)           180.0            -DE/DX =    0.0                 !
 ! D20   D(11,5,6,7)             0.0            -DE/DX =    0.0                 !
 --------------------------------------------------------------------------------
 GradGradGradGradGradGradGradGradGradGradGradGradGradGradGradGradGradGrad


 ----------------------------------------------------------------------

 Electric dipole moment (input orientation):
 (Debye = 10**-18 statcoulomb cm , SI units = C m)
                  (au)            (Debye)         (10**-30 SI)
   Tot        0.749582D+00      0.190525D+01      0.635522D+01
   x          0.353899D+00      0.899522D+00      0.300048D+01
   y         -0.660779D+00     -0.167953D+01     -0.560232D+01
   z          0.000000D+00      0.000000D+00      0.000000D+00

 Dipole polarizability, Alpha (input orientation).
 (esu units = cm**3 , SI units = C**2 m**2 J**-1)
 Alpha(0;0):
               (au)            (10**-24 esu)      (10**-40 SI)
   iso        0.102110D+03      0.151311D+02      0.168357D+02
   aniso      0.787946D+02      0.116762D+02      0.129915D+02
   xx         0.124669D+03      0.184741D+02      0.205552D+02
   yx         0.211234D+02      0.313017D+01      0.348278D+01
   yy         0.126067D+03      0.186813D+02      0.207857D+02
   zx         0.000000D+00      0.000000D+00      0.000000D+00
   zy         0.000000D+00      0.000000D+00      0.000000D+00
   zz         0.555934D+02      0.823809D+01      0.916612D+01

 ----------------------------------------------------------------------

 Dipole orientation:
     6         -4.46929164         -2.39365547         -2.86842488
     6         -2.20229228         -1.17949988         -3.15254933
     6         -0.92504763         -0.49543540         -0.94027784
     6         -1.98032832         -1.06062081          1.40352775
     6         -4.28771518         -2.29640706          1.59049749
     6         -5.56934113         -2.98281807         -0.60618314
    17         -8.45587926         -4.52878516         -0.47853472
    17         -1.02687479         -0.54997182         -6.13335839
    17          1.95491690          1.04701100         -1.07814282
     1         -0.96675474         -0.51777283          3.09419811
     1         -5.09670657         -2.72968527          3.41945213

 Electric dipole moment (dipole orientation):
 (Debye = 10**-18 statcoulomb cm , SI units = C m)
                  (au)            (Debye)         (10**-30 SI)
   Tot        0.749582D+00      0.190525D+01      0.635522D+01
   x          0.000000D+00      0.000000D+00      0.000000D+00
   y          0.000000D+00      0.000000D+00      0.000000D+00
   z          0.749582D+00      0.190525D+01      0.635522D+01

 Dipole polarizability, Alpha (dipole orientation).
 (esu units = cm**3 , SI units = C**2 m**2 J**-1)
 Alpha(0;0):
               (au)            (10**-24 esu)      (10**-40 SI)
   iso        0.102110D+03      0.151311D+02      0.168357D+02
   aniso      0.787946D+02      0.116762D+02      0.129915D+02
   xx         0.123178D+03      0.182530D+02      0.203092D+02
   yx         0.361966D+02      0.536379D+01      0.596802D+01
   yy         0.749795D+02      0.111108D+02      0.123625D+02
   zx        -0.108325D+02     -0.160522D+01     -0.178605D+01
   zy        -0.580168D+01     -0.859720D+00     -0.956567D+00
   zz         0.108173D+03      0.160296D+02      0.178353D+02

 ----------------------------------------------------------------------
 1\1\GINC-SH02-01N47\Freq\UM062X\6-311++G(d,p)\C6H2Cl3(2)\JLAPIER\10-De
 c-2025\0\\#N Geom=AllCheck Guess=TCheck SCRF=Check GenChk UM062X/6-311
 ++G(d,p) Freq\\Neutral Radical (removed 2) 1_34\\0,2\C,-3.081693143,0.
 0714107465,0.\C,-1.9530342589,0.8464541595,0.\C,-0.7244326744,0.176452
 873,0.\C,-0.6972879391,-1.2159817345,0.\C,-1.8715920496,-1.9571503346,
 0.\C,-3.0986169043,-1.2956636903,0.\Cl,-4.5942154824,-2.1733003804,0.\
 Cl,-2.0757539709,2.5700903298,0.\Cl,0.7651348016,1.0569923762,0.\H,0.2
 614683533,-1.7173921982,0.\H,-1.8427467324,-3.0396121471,0.\\Version=E
 S64L-G16RevB.01\State=2-A'\HF=-1610.3044966\S2=0.763081\S2-1=0.\S2A=0.
 750077\RMSD=6.285e-09\RMSF=1.340e-04\ZeroPoint=0.05976\Thermal=0.06756
 66\Dipole=0.353899,-0.6607792,0.\DipoleDeriv=-0.1946015,-0.1111191,0.,
 -0.0580505,-0.2707125,0.,0.,0.,-0.0529811,-0.1068633,-0.0667912,0.,-0.
 173099,1.0429279,0.,0.,0.,0.0484632,0.8694659,0.441421,0.,0.5295289,0.
 1151414,0.,0.,0.,-0.0251827,-0.1227665,-0.0871217,0.,-0.1338916,-0.080
 938,0.,0.,0.,-0.0932149,-0.1399576,-0.0750361,0.,-0.0798324,-0.0660984
 ,0.,0.,0.,-0.1203578,0.8767509,0.520324,0.,0.5319598,0.4031514,0.,0.,0
 .,0.0374833,-0.6125075,-0.3548282,0.,-0.3453122,-0.2937434,0.,0.,0.,-0
 .033674,-0.0271925,0.0501107,0.,0.0428066,-0.7260874,0.,0.,0.,-0.01729
 79,-0.6342477,-0.324374,0.,-0.3106719,-0.2006314,0.,0.,0.,-0.0325164,0
 .0169515,0.0139731,0.,0.009925,0.0601953,0.,0.,0.,0.1470607,0.0749684,
 -0.0065585,0.,-0.0133627,0.0167951,0.,0.,0.,0.1422176\Polar=124.669129
 6,21.1234234,126.0674159,0.,0.,55.5934111\Quadrupole=-0.8586604,2.4651
 276,-1.6064672,-2.4967885,0.,0.\PG=CS [SG(C6H2Cl3)]\NImag=0\\0.4196685
 8,0.14536493,0.62136610,0.,0.,0.07252769,-0.27411715,-0.11259548,0.,0.
 60318724,-0.14046723,-0.16911960,0.,0.03726876,0.55454042,0.,0.,-0.054
 18421,0.,0.,0.11659932,-0.06211805,-0.04703436,0.,-0.25017637,0.129460
 87,0.,0.55694931,0.02743455,0.07219779,0.,0.04305423,-0.14440828,0.,-0
 .03334984,0.61187359,0.,0.,0.01513187,0.,0.,-0.06552345,0.,0.,0.118760
 35,-0.02221335,-0.03198907,0.,0.03457896,0.02496026,0.,-0.11627313,0.0
 5371065,0.,0.75102038,-0.03167469,-0.06732967,0.,0.09040604,-0.0200067
 9,0.,-0.02388586,-0.32322422,0.,-0.02746311,0.67872344,0.,0.,-0.004718
 36,0.,0.,0.00941561,0.,0.,-0.06274021,0.,0.,0.13128593,0.03634395,0.09
 226417,0.,-0.08314001,-0.00214217,0.,0.04203141,-0.08925727,0.,-0.2854
 7344,-0.06065629,0.,0.65675586,0.02432507,-0.03293793,0.,-0.00293734,0
 .00466786,0.,-0.02408763,-0.03077941,0.,-0.13986075,-0.19316856,0.,0.0
 0910762,0.75608398,0.,0.,0.01526735,0.,0.,-0.00256159,0.,0.,0.00643044
 ,0.,0.,-0.06096438,0.,0.,0.12947773,-0.08509379,-0.01408016,0.,0.04304
 846,-0.03077465,0.,-0.02222752,0.04222494,0.,-0.05997012,-0.03604377,0
 .,-0.26071068,0.13728524,0.,0.53643676,0.01478728,-0.35922426,0.,-0.08
 140851,-0.03079022,0.,0.03996937,-0.06539160,0.,0.03037950,0.07448168,
 0.,0.04894500,-0.16758952,0.,-0.02058749,0.62658245,0.,0.,-0.05586903,
 0.,0.,0.00719107,0.,0.,-0.00488615,0.,0.,0.00819717,0.,0.,-0.06531599,
 0.,0.,0.11924265,-0.01098449,-0.01925512,0.,-0.00062596,0.00220051,0.,
 0.00052193,-0.00110409,0.,-0.00083450,0.00599845,0.,-0.03670370,-0.025
 19925,0.,-0.14832373,-0.05683993,0.,0.19833011,-0.03103896,-0.02184710
 ,0.,0.00247119,-0.00199188,0.,-0.00056900,0.00133777,0.,0.00069938,-0.
 00100681,0.,0.00335843,0.00585853,0.,-0.07068113,-0.07160264,0.,0.0973
 5213,0.08953845,0.,0.,0.00177442,0.,0.,0.00352998,0.,0.,0.00016962,0.,
 0.,0.00419127,0.,0.,0.00579641,0.,0.,-0.02245754,0.,0.,0.01024660,0.00
 567384,-0.01935804,0.,-0.03574952,0.00365986,0.,-0.00092347,0.02584196
 ,0.,-0.00425114,-0.00084102,0.,0.00097493,0.00017201,0.,-0.00315161,-0
 .00071363,0.,0.00004356,-0.00060755,0.,0.04039605,-0.01053981,-0.03977
 189,0.,0.02166611,-0.18956201,0.,0.00066084,-0.03319879,0.,0.00395289,
 0.00228880,0.,0.00048468,-0.00281632,0.,-0.00041085,0.00284458,0.,-0.0
 0057032,-0.00086992,0.,-0.01557669,0.26094725,0.,0.,0.00183011,0.,0.,-
 0.02266045,0.,0.,0.00527903,0.,0.,0.00328276,0.,0.,-0.00024345,0.,0.,0
 .00382491,0.,0.,-0.00025472,0.,0.,0.01046978,-0.00388756,0.00380541,0.
 ,-0.03667833,-0.02283916,0.,-0.14673692,-0.06359895,0.,-0.01475096,-0.
 01276672,0.,0.00260581,-0.00028277,0.,0.00143862,0.00049846,0.,-0.0016
 7467,-0.00105471,0.,-0.00349917,0.00063283,0.,0.20280536,0.00011841,-0
 .00129691,0.,0.00267504,0.00020727,0.,-0.06673470,-0.07812753,0.,-0.03
 788840,-0.02083636,0.,0.00449978,-0.00286779,0.,-0.00090264,0.00121346
 ,0.,-0.00106069,-0.00042362,0.,0.00646526,0.00127387,0.,0.09506981,0.1
 0075587,0.,0.,0.00372757,0.,0.,0.00409952,0.,0.,-0.02225892,0.,0.,0.00
 407450,0.,0.,0.00450179,0.,0.,-0.00058580,0.,0.,-0.00036772,0.,0.,-0.0
 0140385,0.,0.,0.01074210,0.00034006,-0.00089601,0.,0.00094919,-0.00033
 307,0.,0.00204776,-0.00280699,0.,-0.28699017,0.12347189,0.,-0.01666497
 ,0.01312076,0.,-0.00198983,-0.00270766,0.,-0.00106049,0.00006510,0.,0.
 00033774,-0.00037843,0.,0.00079306,-0.00101684,0.,0.30148688,-0.000983
 90,-0.00105833,0.,-0.00049518,-0.00436079,0.,0.02758461,-0.01105081,0.
 ,0.12076405,-0.12012684,0.,-0.01607929,0.01175731,0.,-0.00327734,-0.00
 050541,0.,-0.00106232,-0.00002785,0.,0.00095270,-0.00119755,0.,0.00066
 399,0.00052285,0.,-0.12845270,0.12548596,0.,0.,-0.00084834,0.,0.,0.005
 21987,0.,0.,0.00273344,0.,0.,-0.03540660,0.,0.,0.00335724,0.,0.,0.0069
 6589,0.,0.,-0.00005891,0.,0.,0.00007494,0.,0.,-0.00266346,0.,0.,0.0249
 4687,-0.00361204,0.00377374,0.,-0.00127651,-0.00099399,0.,-0.00309496,
 -0.00214919,0.,0.00515747,-0.02654491,0.,-0.05601917,0.00835705,0.,0.0
 0054345,0.02767760,0.,0.00131193,0.00000511,0.,0.00014879,0.00007876,0
 .,-0.00041525,-0.00122503,0.,0.00075077,0.00038536,0.,0.05650551,0.002
 67436,-0.00097821,0.,-0.00010486,0.00082402,0.,-0.00201429,0.00077148,
 0.,0.00273460,-0.00979468,0.,0.00947533,-0.34820816,0.,-0.00275215,-0.
 01001853,0.,-0.00045938,0.00103506,0.,0.00000514,0.00006197,0.,-0.0001
 2820,-0.00042111,0.,-0.00006605,0.00056144,0.,-0.00936450,0.36616672,0
 .,0.,0.00536093,0.,0.,-0.00112566,0.,0.,0.00690398,0.,0.,0.00338230,0.
 ,0.,-0.03574555,0.,0.,0.00369282,0.,0.,-0.00256940,0.,0.,-0.00019906,0
 .,0.,0.00013427,0.,0.,-0.00432093,0.,0.,0.02448631\\0.00032040,0.00007
 350,0.,-0.00018458,-0.00027738,0.,-0.00022233,-0.00022233,0.,0.0000223
 8,0.00001039,0.,0.00001461,0.00012448,0.,-0.00030763,-0.00014723,0.,0.
 00013546,0.00002078,0.,0.00001237,0.00019616,0.,0.00022890,0.00017136,
 0.,-0.00003138,0.00003227,0.,0.00001180,0.00001800,0.\\\@


 HOW IS IT THAT THE SKY FEEDS THE STARS?

                           -- LUCRETIUS
 Job cpu time:       0 days  0 hours 45 minutes 40.1 seconds.
 Elapsed time:       0 days  0 hours 11 minutes 27.1 seconds.
 File lengths (MBytes):  RWF=    172 Int=      0 D2E=      0 Chk=     34 Scr=      1
 Normal termination of Gaussian 16 at Wed Dec 10 11:12:31 2025.
