 Entering Gaussian System, Link 0=g16
 Initial command:
 /share/software/user/restricted/gaussian/g16.B01/l1.exe "/home/users/jlapier/Chloroaromatics/Gau-27782.inp" -scrdir="/home/users/jlapier/Chloroaromatics/"
 Entering Link 1 = /share/software/user/restricted/gaussian/g16.B01/l1.exe PID=     27783.
  
 Copyright (c) 1988-2017, Gaussian, Inc.  All Rights Reserved.
  
 This is part of the Gaussian(R) 16 program.  It is based on
 the Gaussian(R) 09 system (copyright 2009, Gaussian, Inc.),
 the Gaussian(R) 03 system (copyright 2003, Gaussian, Inc.),
 the Gaussian(R) 98 system (copyright 1998, Gaussian, Inc.),
 the Gaussian(R) 94 system (copyright 1995, Gaussian, Inc.),
 the Gaussian 92(TM) system (copyright 1992, Gaussian, Inc.),
 the Gaussian 90(TM) system (copyright 1990, Gaussian, Inc.),
 the Gaussian 88(TM) system (copyright 1988, Gaussian, Inc.),
 the Gaussian 86(TM) system (copyright 1986, Carnegie Mellon
 University), and the Gaussian 82(TM) system (copyright 1983,
 Carnegie Mellon University). Gaussian is a federally registered
 trademark of Gaussian, Inc.
  
 This software contains proprietary and confidential information,
 including trade secrets, belonging to Gaussian, Inc.
  
 This software is provided under written license and may be
 used, copied, transmitted, or stored only in accord with that
 written license.
  
 The following legend is applicable only to US Government
 contracts under FAR:
  
                    RESTRICTED RIGHTS LEGEND
  
 Use, reproduction and disclosure by the US Government is
 subject to restrictions as set forth in subparagraphs (a)
 and (c) of the Commercial Computer Software - Restricted
 Rights clause in FAR 52.227-19.
  
 Gaussian, Inc.
 340 Quinnipiac St., Bldg. 40, Wallingford CT 06492
  
  
 ---------------------------------------------------------------
 Warning -- This program may not be used in any manner that
 competes with the business of Gaussian, Inc. or will provide
 assistance to any competitor of Gaussian, Inc.  The licensee
 of this program is prohibited from giving any competitor of
 Gaussian, Inc. access to this program.  By using this program,
 the user acknowledges that Gaussian, Inc. is engaged in the
 business of creating and licensing software in the field of
 computational chemistry and represents and warrants to the
 licensee that it is not a competitor of Gaussian, Inc. and that
 it will not use this program in any manner prohibited above.
 ---------------------------------------------------------------
  

 Cite this work as:
 Gaussian 16, Revision B.01,
 M. J. Frisch, G. W. Trucks, H. B. Schlegel, G. E. Scuseria, 
 M. A. Robb, J. R. Cheeseman, G. Scalmani, V. Barone, 
 G. A. Petersson, H. Nakatsuji, X. Li, M. Caricato, A. V. Marenich, 
 J. Bloino, B. G. Janesko, R. Gomperts, B. Mennucci, H. P. Hratchian, 
 J. V. Ortiz, A. F. Izmaylov, J. L. Sonnenberg, D. Williams-Young, 
 F. Ding, F. Lipparini, F. Egidi, J. Goings, B. Peng, A. Petrone, 
 T. Henderson, D. Ranasinghe, V. G. Zakrzewski, J. Gao, N. Rega, 
 G. Zheng, W. Liang, M. Hada, M. Ehara, K. Toyota, R. Fukuda, 
 J. Hasegawa, M. Ishida, T. Nakajima, Y. Honda, O. Kitao, H. Nakai, 
 T. Vreven, K. Throssell, J. A. Montgomery, Jr., J. E. Peralta, 
 F. Ogliaro, M. J. Bearpark, J. J. Heyd, E. N. Brothers, K. N. Kudin, 
 V. N. Staroverov, T. A. Keith, R. Kobayashi, J. Normand, 
 K. Raghavachari, A. P. Rendell, J. C. Burant, S. S. Iyengar, 
 J. Tomasi, M. Cossi, J. M. Millam, M. Klene, C. Adamo, R. Cammi, 
 J. W. Ochterski, R. L. Martin, K. Morokuma, O. Farkas, 
 J. B. Foresman, and D. J. Fox, Gaussian, Inc., Wallingford CT, 2016.
 
 ******************************************
 Gaussian 16:  ES64L-G16RevB.01 20-Dec-2017
                10-Dec-2025 
 ******************************************
 %mem=8GB
 %nprocshare=4
 Will use up to    4 processors via shared memory.
 %oldchk=geometry_chks/1234-123_-ClBzNeutralRadical.chk
 %chk=frequency_chks/1234-123_-ClBzNeutralRadical_Freq.chk
 Copying data from "geometry_chks/1234-123_-ClBzNeutralRadical.chk" to current chk file "frequency_chks/1234-123_-ClBzNeutralRadical_Freq.chk"
 IOpt=  2 FromEx=T IUOpen= 4 IOptOp= 5 NList=   0 IFRang= 0 IUIn= 4 IUOut= 2.
 -------------------------------------------------------
 # opt freq 6-311++g(d,p) guess=read geom=allcheck m062x
 -------------------------------------------------------
 1/18=20,19=15,26=3,29=7,38=1/1,3;
 2/9=110,12=2,40=1/2;
 3/5=4,6=6,7=1111,11=2,14=-4,25=1,30=1,71=1,74=-55,116=-2/1,2,3;
 4/5=1/1;
 5/5=2,38=6/2;
 6/7=2,8=2,9=2,10=2,28=1/1;
 7//1,2,3,16;
 1/18=20,19=15,26=3/3(2);
 2/9=110/2;
 99//99;
 2/9=110/2;
 3/5=4,6=6,7=1111,11=2,14=-2,25=1,30=1,71=1,74=-55/1,2,3;
 4/5=5,16=3,69=1/1;
 5/5=2,38=5/2;
 7//1,2,3,16;
 1/18=20,19=15,26=3/3(-5);
 2/9=110/2;
 6/7=2,8=2,9=2,10=2,19=2,28=1/1;
 99/9=1/99;
 Structure from the checkpoint file:  "frequency_chks/1234-123_-ClBzNeutralRadical_Freq.chk"
 --------------------------------
 Neutral Radical (removed 4) 123_
 --------------------------------
 Charge =  0 Multiplicity = 2
 Redundant internal coordinates found in file.  (old form).
 C,0,-3.1843966894,0.1386281951,0.
 C,0,-1.9719722329,0.8789305971,0.
 C,0,-0.8242758921,0.1211464707,0.
 C,0,-0.6850193219,-1.240649893,0.
 C,0,-1.8919336656,-1.9628828099,0.
 C,0,-3.1207662079,-1.2749732102,0.
 Cl,0,-4.5474633794,-2.1885084528,0.
 Cl,0,-4.666103491,0.9414692163,0.
 Cl,0,-1.9291536536,2.5579205371,0.
 H,0,0.2933401135,-1.736961094,0.
 H,0,-1.8760055797,-3.0626595564,0.
 Recover connectivity data from disk.

 GradGradGradGradGradGradGradGradGradGradGradGradGradGradGradGradGradGrad
 Berny optimization.
 Initialization pass.
                           ----------------------------
                           !    Initial Parameters    !
                           ! (Angstroms and Degrees)  !
 --------------------------                            --------------------------
 ! Name  Definition              Value          Derivative Info.                !
 --------------------------------------------------------------------------------
 ! R1    R(1,2)                  1.4206         estimate D2E/DX2                !
 ! R2    R(1,6)                  1.415          estimate D2E/DX2                !
 ! R3    R(1,8)                  1.6852         estimate D2E/DX2                !
 ! R4    R(2,3)                  1.3753         estimate D2E/DX2                !
 ! R5    R(2,9)                  1.6795         estimate D2E/DX2                !
 ! R6    R(3,4)                  1.3689         estimate D2E/DX2                !
 ! R7    R(4,5)                  1.4065         estimate D2E/DX2                !
 ! R8    R(4,10)                 1.097          estimate D2E/DX2                !
 ! R9    R(5,6)                  1.4083         estimate D2E/DX2                !
 ! R10   R(5,11)                 1.0999         estimate D2E/DX2                !
 ! R11   R(6,7)                  1.6941         estimate D2E/DX2                !
 ! A1    A(2,1,6)              118.8308         estimate D2E/DX2                !
 ! A2    A(2,1,8)              120.1415         estimate D2E/DX2                !
 ! A3    A(6,1,8)              121.0277         estimate D2E/DX2                !
 ! A4    A(1,2,3)              115.1565         estimate D2E/DX2                !
 ! A5    A(1,2,9)              122.869          estimate D2E/DX2                !
 ! A6    A(3,2,9)              121.9745         estimate D2E/DX2                !
 ! A7    A(2,3,4)              129.2741         estimate D2E/DX2                !
 ! A8    A(3,4,5)              115.0581         estimate D2E/DX2                !
 ! A9    A(3,4,10)             122.7369         estimate D2E/DX2                !
 ! A10   A(5,4,10)             122.205          estimate D2E/DX2                !
 ! A11   A(4,5,6)              119.8627         estimate D2E/DX2                !
 ! A12   A(4,5,11)             120.0671         estimate D2E/DX2                !
 ! A13   A(6,5,11)             120.0702         estimate D2E/DX2                !
 ! A14   A(1,6,5)              121.8177         estimate D2E/DX2                !
 ! A15   A(1,6,7)              120.0547         estimate D2E/DX2                !
 ! A16   A(5,6,7)              118.1275         estimate D2E/DX2                !
 ! D1    D(6,1,2,3)              0.0            estimate D2E/DX2                !
 ! D2    D(6,1,2,9)            180.0            estimate D2E/DX2                !
 ! D3    D(8,1,2,3)            180.0            estimate D2E/DX2                !
 ! D4    D(8,1,2,9)              0.0            estimate D2E/DX2                !
 ! D5    D(2,1,6,5)              0.0            estimate D2E/DX2                !
 ! D6    D(2,1,6,7)            180.0            estimate D2E/DX2                !
 ! D7    D(8,1,6,5)            180.0            estimate D2E/DX2                !
 ! D8    D(8,1,6,7)              0.0            estimate D2E/DX2                !
 ! D9    D(1,2,3,4)              0.0            estimate D2E/DX2                !
 ! D10   D(9,2,3,4)            180.0            estimate D2E/DX2                !
 ! D11   D(2,3,4,5)              0.0            estimate D2E/DX2                !
 ! D12   D(2,3,4,10)           180.0            estimate D2E/DX2                !
 ! D13   D(3,4,5,6)              0.0            estimate D2E/DX2                !
 ! D14   D(3,4,5,11)           180.0            estimate D2E/DX2                !
 ! D15   D(10,4,5,6)           180.0            estimate D2E/DX2                !
 ! D16   D(10,4,5,11)            0.0            estimate D2E/DX2                !
 ! D17   D(4,5,6,1)              0.0            estimate D2E/DX2                !
 ! D18   D(4,5,6,7)            180.0            estimate D2E/DX2                !
 ! D19   D(11,5,6,1)           180.0            estimate D2E/DX2                !
 ! D20   D(11,5,6,7)             0.0            estimate D2E/DX2                !
 --------------------------------------------------------------------------------
 Trust Radius=3.00D-01 FncErr=1.00D-07 GrdErr=1.00D-06 EigMax=2.50D+02 EigMin=1.00D-04
 Number of steps in this run=     57 maximum allowed number of steps=    100.
 GradGradGradGradGradGradGradGradGradGradGradGradGradGradGradGradGradGrad

                          Input orientation:                          
 ---------------------------------------------------------------------
 Center     Atomic      Atomic             Coordinates (Angstroms)
 Number     Number       Type             X           Y           Z
 ---------------------------------------------------------------------
      1          6           0       -3.184397    0.138628    0.000000
      2          6           0       -1.971972    0.878931    0.000000
      3          6           0       -0.824276    0.121146    0.000000
      4          6           0       -0.685019   -1.240650    0.000000
      5          6           0       -1.891934   -1.962883    0.000000
      6          6           0       -3.120766   -1.274973    0.000000
      7         17           0       -4.547463   -2.188508    0.000000
      8         17           0       -4.666103    0.941469   -0.000000
      9         17           0       -1.929154    2.557921   -0.000000
     10          1           0        0.293340   -1.736961    0.000000
     11          1           0       -1.876006   -3.062660    0.000000
 ---------------------------------------------------------------------
                    Distance matrix (angstroms):
                    1          2          3          4          5
     1  C    0.000000
     2  C    1.420571   0.000000
     3  C    2.360186   1.375298   0.000000
     4  C    2.854697   2.479691   1.368898   0.000000
     5  C    2.467146   2.842940   2.341596   1.406507   0.000000
     6  C    1.415033   2.441112   2.687567   2.435989   1.408279
     7  Cl   2.696946   4.005289   4.381396   3.977048   2.665098
     8  Cl   1.685233   2.694857   3.928431   4.539898   4.016376
     9  Cl   2.725548   1.679536   2.675560   3.997125   4.520957
    10  H    3.951264   3.460423   2.168324   1.097047   2.196921
    11  H    3.458342   3.942758   3.353022   2.176733   1.099892
                    6          7          8          9         10
     6  C    0.000000
     7  Cl   1.694111   0.000000
     8  Cl   2.701978   3.132225   0.000000
     9  Cl   4.013853   5.420713   3.178649   0.000000
    10  H    3.445222   4.861818   5.636494   4.835854   0.000000
    11  H    2.178360   2.810841   4.880337   5.620831   2.542349
                   11
    11  H    0.000000
 Stoichiometry    C6H2Cl3(2)
 Framework group  CS[SG(C6H2Cl3)]
 Deg. of freedom    19
 Full point group                 CS      NOp   2
 Largest Abelian subgroup         CS      NOp   2
 Largest concise Abelian subgroup C1      NOp   1
                         Standard orientation:                         
 ---------------------------------------------------------------------
 Center     Atomic      Atomic             Coordinates (Angstroms)
 Number     Number       Type             X           Y           Z
 ---------------------------------------------------------------------
      1          6           0       -0.000000   -0.301593    0.000000
      2          6           0        1.288560    0.296431    0.000000
      3          6           0        1.294810    1.671715    0.000000
      4          6           0        0.239060    2.543077   -0.000000
      5          6           0       -1.031410    1.939613   -0.000000
      6          6           0       -1.140808    0.535590   -0.000000
      7         17           0       -2.692372   -0.144601   -0.000000
      8         17           0       -0.154066   -1.979768    0.000000
      9         17           0        2.709227   -0.599419    0.000000
     10          1           0        0.368909    3.632412   -0.000000
     11          1           0       -1.937582    2.563002   -0.000000
 ---------------------------------------------------------------------
 Rotational constants (GHZ):           1.5393972           0.8603289           0.5518913
 Standard basis: 6-311++G(d,p) (5D, 7F)
 There are   183 symmetry adapted cartesian basis functions of A'  symmetry.
 There are    62 symmetry adapted cartesian basis functions of A"  symmetry.
 There are   174 symmetry adapted basis functions of A'  symmetry.
 There are    62 symmetry adapted basis functions of A"  symmetry.
   236 basis functions,   393 primitive gaussians,   245 cartesian basis functions
    45 alpha electrons       44 beta electrons
       nuclear repulsion energy       637.2440747330 Hartrees.
 NAtoms=   11 NActive=   11 NUniq=   11 SFac= 1.00D+00 NAtFMM=   60 NAOKFM=F Big=F
 Integral buffers will be    131072 words long.
 Raffenetti 2 integral format.
 Two-electron integral symmetry is turned on.
 One-electron integrals computed using PRISM.
 NBasis=   236 RedAO= T EigKep=  1.23D-06  NBF=   174    62
 NBsUse=   235 1.00D-06 EigRej=  9.57D-07 NBFU=   173    62
 Initial guess from the checkpoint file:  "frequency_chks/1234-123_-ClBzNeutralRadical_Freq.chk"
 B after Tr=     0.000000   -0.000000   -0.000000
         Rot=    1.000000    0.000000   -0.000000   -0.000000 Ang=   0.00 deg.
 Initial guess orbital symmetries:
 Alpha Orbitals:
       Occupied  (A') (A') (A') (A') (A') (A') (A') (A') (A') (A')
                 (A') (A') (A") (A') (A') (A") (A") (A') (A") (A')
                 (A') (A') (A") (A") (A") (A") (A') (A') (A') (A")
                 (A') (A') (A') (A') (A') (A') (A') (A') (A') (A')
                 (A') (A') (A') (A') (A')
       Virtual   (A') (A') (A') (A') (A') (A') (A') (A') (A') (A')
                 (A') (A') (A') (A') (A') (A') (A') (A') (A') (A')
                 (A') (A') (A') (A') (A') (A') (A') (A') (A') (A')
                 (A') (A') (A') (A') (A') (A') (A') (A') (A') (A')
                 (A') (A') (A') (A') (A') (A') (A') (A') (A') (A')
                 (A') (A') (A') (A') (A') (A') (A') (A') (A') (A')
                 (A') (A') (A') (A') (A') (A') (A') (A') (A') (A')
                 (A') (A') (A') (A') (A') (A') (A') (A') (A') (A')
                 (A') (A') (A') (A') (A') (A') (A') (A') (A') (A')
                 (A') (A') (A') (A') (A') (A') (A') (A') (A') (A')
                 (A') (A') (A') (A') (A') (A') (A') (A') (A') (A')
                 (A') (A') (A') (A') (A') (A') (A') (A') (A') (A')
                 (A') (A') (A') (A') (A') (A') (A') (A') (A') (A')
                 (A') (A') (A') (A') (A') (A') (A') (A") (A") (A")
                 (A") (A") (A") (A") (A") (A") (A") (A") (A") (A")
                 (A") (A") (A") (A") (A") (A") (A") (A") (A") (A")
                 (A") (A") (A") (A") (A") (A") (A") (A") (A") (A")
                 (A") (A") (A") (A") (A") (A") (A") (A") (A") (A")
                 (A") (A") (A") (A") (A") (A") (A") (A") (A") (A")
 Beta  Orbitals:
       Occupied  (A') (A') (A') (A') (A') (A') (A') (A') (A') (A')
                 (A') (A') (A") (A') (A") (A') (A") (A") (A') (A')
                 (A') (A") (A") (A') (A") (A") (A') (A') (A') (A")
                 (A') (A') (A') (A') (A') (A') (A') (A') (A') (A')
                 (A') (A') (A') (A')
       Virtual   (A') (A') (A') (A') (A') (A') (A') (A') (A') (A')
                 (A') (A') (A') (A') (A') (A') (A') (A') (A') (A')
                 (A') (A') (A') (A') (A') (A') (A') (A') (A') (A')
                 (A') (A') (A') (A') (A') (A') (A') (A') (A') (A')
                 (A') (A') (A') (A') (A') (A') (A') (A') (A') (A')
                 (A') (A') (A') (A') (A') (A') (A') (A') (A') (A')
                 (A') (A') (A') (A') (A') (A') (A') (A') (A') (A')
                 (A') (A') (A') (A') (A') (A') (A') (A') (A') (A')
                 (A') (A') (A') (A') (A') (A') (A') (A') (A') (A')
                 (A') (A') (A') (A') (A') (A') (A') (A') (A') (A')
                 (A') (A') (A') (A') (A') (A') (A') (A') (A') (A')
                 (A') (A') (A') (A') (A') (A') (A') (A') (A') (A')
                 (A') (A') (A') (A') (A') (A') (A') (A') (A') (A')
                 (A') (A') (A') (A') (A') (A') (A') (A') (A") (A")
                 (A") (A") (A") (A") (A") (A") (A") (A") (A") (A")
                 (A") (A") (A") (A") (A") (A") (A") (A") (A") (A")
                 (A") (A") (A") (A") (A") (A") (A") (A") (A") (A")
                 (A") (A") (A") (A") (A") (A") (A") (A") (A") (A")
                 (A") (A") (A") (A") (A") (A") (A") (A") (A") (A")
                 (A")
 Initial guess <Sx>= 0.0000 <Sy>= 0.0000 <Sz>= 0.5000 <S**2>= 0.7500 S= 0.5000
 Keep R1 and R2 ints in memory in symmetry-blocked form, NReq=617299900.
 Requested convergence on RMS density matrix=1.00D-08 within 128 cycles.
 Requested convergence on MAX density matrix=1.00D-06.
 Requested convergence on             energy=1.00D-06.
 No special actions if energy rises.
 EnCoef did     4 forward-backward iterations
 EnCoef did     5 forward-backward iterations
 EnCoef did     2 forward-backward iterations
 SCF Done:  E(UM062X) =  -1610.29889545     A.U. after   29 cycles
            NFock= 29  Conv=0.64D-08     -V/T= 2.0023
 <Sx>= 0.0000 <Sy>= 0.0000 <Sz>= 0.5000 <S**2>= 0.7633 S= 0.5066
 <L.S>=  0.00000000000    
 Annihilation of the first spin contaminant:
 S**2 before annihilation     0.7633,   after     0.7501

 **********************************************************************

            Population analysis using the SCF Density.

 **********************************************************************

 Orbital symmetries:
 Alpha Orbitals:
       Occupied  (A') (A') (A') (A') (A') (A') (A') (A') (A') (A')
                 (A') (A') (A') (A') (A') (A") (A') (A") (A') (A")
                 (A') (A') (A') (A') (A') (A') (A') (A') (A') (A')
                 (A') (A') (A') (A") (A') (A') (A") (A") (A') (A")
                 (A') (A') (A') (A") (A")
       Virtual   (A") (A") (A') (A') (A') (A') (A') (A') (A") (A')
                 (A') (A") (A') (A") (A') (A") (A') (A') (A') (A")
                 (A") (A') (A') (A') (A') (A") (A') (A') (A") (A")
                 (A') (A') (A') (A') (A') (A") (A') (A') (A') (A')
                 (A') (A') (A') (A') (A') (A') (A') (A') (A') (A')
                 (A') (A") (A') (A") (A') (A') (A') (A") (A') (A')
                 (A") (A') (A") (A') (A") (A') (A") (A") (A') (A')
                 (A') (A") (A') (A') (A') (A") (A') (A') (A') (A")
                 (A') (A') (A') (A') (A") (A") (A") (A') (A') (A')
                 (A') (A") (A') (A') (A') (A") (A') (A") (A') (A')
                 (A') (A") (A') (A') (A') (A") (A') (A") (A") (A')
                 (A') (A') (A') (A") (A') (A") (A') (A') (A') (A')
                 (A') (A") (A") (A") (A') (A") (A') (A') (A') (A")
                 (A') (A') (A") (A") (A') (A") (A") (A') (A') (A')
                 (A') (A') (A') (A') (A') (A') (A") (A') (A') (A')
                 (A') (A") (A") (A") (A") (A') (A") (A') (A') (A')
                 (A') (A') (A') (A') (A') (A') (A') (A') (A') (A')
                 (A') (A') (A') (A') (A') (A') (A') (A') (A") (A")
                 (A") (A') (A') (A') (A') (A') (A') (A') (A') (A')
 Beta  Orbitals:
       Occupied  (A') (A') (A') (A') (A') (A') (A') (A') (A') (A')
                 (A') (A') (A') (A') (A') (A") (A') (A") (A') (A")
                 (A') (A') (A') (A') (A') (A') (A') (A') (A') (A')
                 (A') (A') (A') (A") (A') (A') (A") (A") (A') (A")
                 (A') (A') (A") (A")
       Virtual   (A') (A") (A') (A") (A') (A') (A') (A') (A') (A")
                 (A') (A') (A") (A") (A') (A') (A") (A') (A') (A")
                 (A') (A') (A") (A') (A') (A") (A') (A') (A') (A")
                 (A") (A') (A') (A') (A') (A') (A") (A') (A') (A')
                 (A') (A') (A') (A') (A') (A') (A') (A') (A') (A')
                 (A') (A") (A') (A') (A") (A') (A') (A') (A") (A')
                 (A') (A") (A') (A') (A") (A") (A') (A") (A") (A')
                 (A') (A') (A") (A') (A') (A') (A") (A') (A') (A')
                 (A") (A') (A') (A') (A') (A") (A") (A") (A') (A')
                 (A') (A') (A') (A") (A') (A') (A") (A') (A") (A')
                 (A') (A') (A") (A') (A') (A') (A") (A') (A") (A")
                 (A') (A') (A') (A') (A") (A') (A") (A') (A') (A')
                 (A') (A') (A") (A") (A") (A') (A") (A') (A') (A')
                 (A") (A') (A') (A") (A") (A') (A") (A") (A') (A')
                 (A') (A') (A') (A') (A') (A') (A') (A") (A') (A')
                 (A') (A') (A") (A") (A") (A") (A') (A") (A') (A')
                 (A') (A') (A') (A') (A') (A') (A') (A') (A') (A')
                 (A') (A') (A') (A') (A') (A') (A') (A') (A') (A")
                 (A") (A") (A') (A') (A') (A') (A') (A') (A') (A')
                 (A')
 The electronic state is 2-A'.
 Alpha  occ. eigenvalues -- -102.70001-102.69906-102.69457 -10.64536 -10.64082
 Alpha  occ. eigenvalues --  -10.63743 -10.60168 -10.59042 -10.58702  -9.84334
 Alpha  occ. eigenvalues --   -9.84246  -9.83811  -7.56896  -7.56783  -7.56334
 Alpha  occ. eigenvalues --   -7.56149  -7.56139  -7.56085  -7.56048  -7.55632
 Alpha  occ. eigenvalues --   -7.55620  -1.06130  -1.01036  -0.98295  -0.95438
 Alpha  occ. eigenvalues --   -0.85209  -0.83833  -0.71930  -0.70032  -0.60757
 Alpha  occ. eigenvalues --   -0.59411  -0.55708  -0.53721  -0.52700  -0.50528
 Alpha  occ. eigenvalues --   -0.48024  -0.45852  -0.43431  -0.41385  -0.40892
 Alpha  occ. eigenvalues --   -0.40462  -0.38758  -0.33389  -0.32012  -0.31662
 Alpha virt. eigenvalues --   -0.02108  -0.01346  -0.00486   0.01155   0.02039
 Alpha virt. eigenvalues --    0.03739   0.04390   0.04668   0.05301   0.06604
 Alpha virt. eigenvalues --    0.07776   0.08050   0.08194   0.08342   0.09099
 Alpha virt. eigenvalues --    0.09926   0.11176   0.11354   0.11814   0.11997
 Alpha virt. eigenvalues --    0.12504   0.12772   0.13812   0.14481   0.15295
 Alpha virt. eigenvalues --    0.15332   0.16769   0.17226   0.17334   0.17515
 Alpha virt. eigenvalues --    0.18289   0.19529   0.20056   0.20789   0.21033
 Alpha virt. eigenvalues --    0.21862   0.23338   0.23800   0.24822   0.25525
 Alpha virt. eigenvalues --    0.26589   0.26734   0.27980   0.28324   0.29615
 Alpha virt. eigenvalues --    0.31920   0.32223   0.33413   0.35576   0.44235
 Alpha virt. eigenvalues --    0.44804   0.44943   0.47068   0.48001   0.48643
 Alpha virt. eigenvalues --    0.49473   0.49707   0.50762   0.51623   0.53663
 Alpha virt. eigenvalues --    0.54087   0.55415   0.59311   0.59925   0.60309
 Alpha virt. eigenvalues --    0.61765   0.62952   0.63763   0.64646   0.66130
 Alpha virt. eigenvalues --    0.67087   0.69074   0.70568   0.73062   0.75618
 Alpha virt. eigenvalues --    0.78613   0.79345   0.82855   0.84523   0.86742
 Alpha virt. eigenvalues --    0.88260   0.88430   0.89086   0.90052   0.90630
 Alpha virt. eigenvalues --    0.91359   0.91784   0.93995   0.94795   0.96295
 Alpha virt. eigenvalues --    0.97735   0.98795   0.98995   0.99604   1.00404
 Alpha virt. eigenvalues --    1.02140   1.05496   1.05596   1.08815   1.11390
 Alpha virt. eigenvalues --    1.18188   1.21397   1.23649   1.28209   1.28703
 Alpha virt. eigenvalues --    1.29407   1.33068   1.34543   1.36062   1.36993
 Alpha virt. eigenvalues --    1.41455   1.49351   1.52154   1.59525   1.62060
 Alpha virt. eigenvalues --    1.66445   1.67494   1.69154   1.74424   1.80505
 Alpha virt. eigenvalues --    1.84566   1.86144   1.87632   1.90043   1.92399
 Alpha virt. eigenvalues --    1.94054   1.96304   2.00079   2.06354   2.15523
 Alpha virt. eigenvalues --    2.16887   2.25431   2.26559   2.29216   2.29915
 Alpha virt. eigenvalues --    2.30750   2.34055   2.34657   2.42474   2.43996
 Alpha virt. eigenvalues --    2.44640   2.46140   2.52226   2.57560   2.61426
 Alpha virt. eigenvalues --    2.64528   2.66760   2.67508   2.70450   2.72109
 Alpha virt. eigenvalues --    2.74770   2.79573   2.81925   2.90060   2.92633
 Alpha virt. eigenvalues --    2.94383   3.09633   3.13323   3.20741   3.24072
 Alpha virt. eigenvalues --    3.28246   3.38852   3.40453   3.60355   3.72508
 Alpha virt. eigenvalues --    3.84106   4.04223   4.08352   4.75961   9.92984
 Alpha virt. eigenvalues --    9.99599  10.01331  23.41415  23.85124  23.91659
 Alpha virt. eigenvalues --   24.00687  24.06728  24.20367  25.87339  25.92218
 Alpha virt. eigenvalues --   25.98969  26.18743  26.21795  26.31314  26.52913
 Alpha virt. eigenvalues --   26.74593  26.91978 216.02551 216.10153 216.12249
  Beta  occ. eigenvalues -- -102.69968-102.69884-102.69462 -10.64464 -10.64120
  Beta  occ. eigenvalues --  -10.63780 -10.59191 -10.58952 -10.58724  -9.84320
  Beta  occ. eigenvalues --   -9.84238  -9.83813  -7.56818  -7.56746  -7.56332
  Beta  occ. eigenvalues --   -7.56155  -7.56108  -7.56069  -7.56028  -7.55652
  Beta  occ. eigenvalues --   -7.55619  -1.05820  -1.00891  -0.97971  -0.94737
  Beta  occ. eigenvalues --   -0.84820  -0.82462  -0.71531  -0.68756  -0.59962
  Beta  occ. eigenvalues --   -0.58641  -0.55025  -0.53384  -0.52416  -0.49626
  Beta  occ. eigenvalues --   -0.47486  -0.45825  -0.43081  -0.40988  -0.40532
  Beta  occ. eigenvalues --   -0.40252  -0.38462  -0.31750  -0.30885
  Beta virt. eigenvalues --   -0.07958  -0.02160  -0.00438  -0.00264   0.01144
  Beta virt. eigenvalues --    0.02605   0.03749   0.04223   0.04821   0.05184
  Beta virt. eigenvalues --    0.05980   0.07893   0.08083   0.08248   0.08429
  Beta virt. eigenvalues --    0.09143   0.09965   0.11191   0.11315   0.11793
  Beta virt. eigenvalues --    0.11848   0.12333   0.12525   0.13828   0.14557
  Beta virt. eigenvalues --    0.15113   0.15426   0.16672   0.17074   0.17449
  Beta virt. eigenvalues --    0.18169   0.18354   0.19612   0.19854   0.20466
  Beta virt. eigenvalues --    0.21140   0.21893   0.23407   0.23658   0.24820
  Beta virt. eigenvalues --    0.25838   0.26540   0.26741   0.28098   0.28316
  Beta virt. eigenvalues --    0.29879   0.32264   0.32518   0.33658   0.36236
  Beta virt. eigenvalues --    0.44116   0.44959   0.45165   0.46342   0.48054
  Beta virt. eigenvalues --    0.48902   0.49387   0.49604   0.50806   0.51742
  Beta virt. eigenvalues --    0.52702   0.54249   0.55277   0.57418   0.59325
  Beta virt. eigenvalues --    0.60592   0.61492   0.62878   0.63838   0.65170
  Beta virt. eigenvalues --    0.66729   0.67151   0.68931   0.70523   0.73121
  Beta virt. eigenvalues --    0.76040   0.78762   0.79407   0.83229   0.84238
  Beta virt. eigenvalues --    0.86757   0.88064   0.88733   0.89087   0.90176
  Beta virt. eigenvalues --    0.90677   0.91376   0.91845   0.93817   0.94720
  Beta virt. eigenvalues --    0.96233   0.97735   0.98936   0.99009   0.99502
  Beta virt. eigenvalues --    1.00472   1.02672   1.05303   1.05924   1.08769
  Beta virt. eigenvalues --    1.12010   1.18058   1.23032   1.23091   1.28255
  Beta virt. eigenvalues --    1.28463   1.30486   1.33157   1.34593   1.36460
  Beta virt. eigenvalues --    1.36852   1.42732   1.49956   1.52853   1.59872
  Beta virt. eigenvalues --    1.64034   1.66720   1.67659   1.69298   1.74992
  Beta virt. eigenvalues --    1.80979   1.85025   1.86462   1.87566   1.90440
  Beta virt. eigenvalues --    1.92765   1.94818   1.96861   2.00603   2.06964
  Beta virt. eigenvalues --    2.15737   2.17063   2.26294   2.26588   2.29211
  Beta virt. eigenvalues --    2.29710   2.31194   2.34100   2.34712   2.42865
  Beta virt. eigenvalues --    2.44321   2.45339   2.46197   2.52293   2.57928
  Beta virt. eigenvalues --    2.61746   2.64919   2.66874   2.68175   2.70419
  Beta virt. eigenvalues --    2.72387   2.74837   2.79995   2.81945   2.90257
  Beta virt. eigenvalues --    2.92452   2.97361   3.09701   3.13562   3.21012
  Beta virt. eigenvalues --    3.24822   3.28440   3.39017   3.41181   3.60761
  Beta virt. eigenvalues --    3.72851   3.84268   4.04791   4.08393   4.76173
  Beta virt. eigenvalues --    9.92990   9.99601  10.01337  23.41536  23.85263
  Beta virt. eigenvalues --   23.91694  24.00702  24.06960  24.20956  25.87353
  Beta virt. eigenvalues --   25.92195  25.98980  26.18797  26.21848  26.31332
  Beta virt. eigenvalues --   26.53005  26.74703  26.92068 216.02575 216.10179
  Beta virt. eigenvalues --  216.12277
          Condensed to atoms (all electrons):
               1          2          3          4          5          6
     1  C   26.932084  -2.706916 -10.033050  -4.079159  -5.883611   1.872429
     2  C   -2.706916  23.706898   3.713020  -2.355814  -6.828813  -7.540761
     3  C  -10.033050   3.713020  15.482132   2.462644  -1.222817  -3.843391
     4  C   -4.079159  -2.355814   2.462644  14.098737  -2.793463  -0.972081
     5  C   -5.883611  -6.828813  -1.222817  -2.793463  25.295500  -2.823093
     6  C    1.872429  -7.540761  -3.843391  -0.972081  -2.823093  19.864450
     7  Cl   0.897568   0.542666   0.267302  -0.191172  -0.409235  -1.740790
     8  Cl  -1.667147  -0.723589  -0.106155   0.383480   0.530060   0.891525
     9  Cl   0.837891  -1.310093  -0.343817  -0.181619   0.245164   0.032534
    10  H    0.002460  -0.112198  -0.029264   0.569474  -0.106236   0.011957
    11  H   -0.106155   0.016016   0.050246  -0.171474   0.650119  -0.155357
               7          8          9         10         11
     1  C    0.897568  -1.667147   0.837891   0.002460  -0.106155
     2  C    0.542666  -0.723589  -1.310093  -0.112198   0.016016
     3  C    0.267302  -0.106155  -0.343817  -0.029264   0.050246
     4  C   -0.191172   0.383480  -0.181619   0.569474  -0.171474
     5  C   -0.409235   0.530060   0.245164  -0.106236   0.650119
     6  C   -1.740790   0.891525   0.032534   0.011957  -0.155357
     7  Cl  17.551036  -0.339483  -0.001581  -0.015536   0.030526
     8  Cl  -0.339483  17.734340  -0.258485   0.009081  -0.015460
     9  Cl  -0.001581  -0.258485  17.503461  -0.008806   0.005489
    10  H   -0.015536   0.009081  -0.008806   0.484016  -0.014393
    11  H    0.030526  -0.015460   0.005489  -0.014393   0.486075
          Atomic-Atomic Spin Densities.
               1          2          3          4          5          6
     1  C    0.810620  -0.501133  -0.308978   0.041222  -0.064333   0.088300
     2  C   -0.501133   0.441773   0.216698   0.226536  -0.204108  -0.305763
     3  C   -0.308978   0.216698   1.144142   0.056635  -0.169574   0.008304
     4  C    0.041222   0.226536   0.056635  -0.019199  -0.076626  -0.185990
     5  C   -0.064333  -0.204108  -0.169574  -0.076626   0.489478   0.108574
     6  C    0.088300  -0.305763   0.008304  -0.185990   0.108574   0.271700
     7  Cl   0.021295  -0.013598  -0.026997  -0.000703   0.029752  -0.022820
     8  Cl  -0.142617   0.170346   0.061508   0.045049  -0.053459  -0.092456
     9  Cl   0.161033  -0.083942  -0.112279  -0.072229   0.034848   0.063287
    10  H   -0.005853  -0.002237   0.004843   0.012812  -0.027300   0.005501
    11  H    0.004323  -0.001966  -0.001882  -0.000133  -0.017358   0.014969
               7          8          9         10         11
     1  C    0.021295  -0.142617   0.161033  -0.005853   0.004323
     2  C   -0.013598   0.170346  -0.083942  -0.002237  -0.001966
     3  C   -0.026997   0.061508  -0.112279   0.004843  -0.001882
     4  C   -0.000703   0.045049  -0.072229   0.012812  -0.000133
     5  C    0.029752  -0.053459   0.034848  -0.027300  -0.017358
     6  C   -0.022820  -0.092456   0.063287   0.005501   0.014969
     7  Cl   0.007706  -0.000132   0.002736  -0.001512  -0.000829
     8  Cl  -0.000132   0.063644  -0.039501   0.000424  -0.000628
     9  Cl   0.002736  -0.039501   0.058991  -0.001269   0.000244
    10  H   -0.001512   0.000424  -0.001269   0.036084   0.001708
    11  H   -0.000829  -0.000628   0.000244   0.001708   0.009576
 Mulliken charges and spin densities:
               1          2
     1  C   -0.066394   0.103879
     2  C   -0.400416  -0.057393
     3  C   -0.396850   0.872421
     4  C   -0.769552   0.027375
     5  C   -0.653575   0.049894
     6  C    0.402577  -0.046394
     7  Cl   0.408698  -0.005101
     8  Cl   0.561833   0.012179
     9  Cl   0.479862   0.011918
    10  H    0.209447   0.023201
    11  H    0.224369   0.008024
 Sum of Mulliken charges =  -0.00000   1.00000
 Mulliken charges and spin densities with hydrogens summed into heavy atoms:
               1          2
     1  C   -0.066394   0.103879
     2  C   -0.400416  -0.057393
     3  C   -0.396850   0.872421
     4  C   -0.560105   0.050575
     5  C   -0.429206   0.057917
     6  C    0.402577  -0.046394
     7  Cl   0.408698  -0.005101
     8  Cl   0.561833   0.012179
     9  Cl   0.479862   0.011918
 Electronic spatial extent (au):  <R**2>=           1802.3326
 Charge=              0.0000 electrons
 Dipole moment (field-independent basis, Debye):
    X=             -0.4074    Y=              2.0089    Z=             -0.0000  Tot=              2.0498
 Quadrupole moment (field-independent basis, Debye-Ang):
   XX=            -72.9550   YY=            -64.3624   ZZ=            -74.2609
   XY=             -2.0286   XZ=             -0.0000   YZ=              0.0000
 Traceless Quadrupole moment (field-independent basis, Debye-Ang):
   XX=             -2.4289   YY=              6.1637   ZZ=             -3.7348
   XY=             -2.0286   XZ=             -0.0000   YZ=              0.0000
 Octapole moment (field-independent basis, Debye-Ang**2):
  XXX=             -5.6808  YYY=              5.3074  ZZZ=              0.0000  XYY=             -5.5379
  XXY=             -7.3437  XXZ=             -0.0000  XZZ=             -0.5623  YZZ=             -9.1117
  YYZ=             -0.0000  XYZ=              0.0000
 Hexadecapole moment (field-independent basis, Debye-Ang**3):
 XXXX=          -1349.8837 YYYY=           -784.7037 ZZZZ=            -85.9472 XXXY=             13.4779
 XXXZ=             -0.0000 YYYX=             23.2724 YYYZ=              0.0000 ZZZX=             -0.0000
 ZZZY=              0.0000 XXYY=           -369.5424 XXZZ=           -252.8633 YYZZ=           -178.4124
 XXYZ=              0.0000 YYXZ=             -0.0000 ZZXY=             11.1204
 N-N= 6.372440747330D+02 E-N=-5.088942681198D+03  KE= 1.606560704137D+03
 Symmetry A'   KE= 1.462272180171D+03
 Symmetry A"   KE= 1.442885239656D+02
 Symmetry A'   SP= 1.000000000000D+00
 Symmetry A"   SP=-6.269123750220D-15
                          Isotropic Fermi Contact Couplings
        Atom                 a.u.       MegaHertz       Gauss      10(-4) cm-1
     1  C(13)              0.04858      54.61064      19.48643      18.21615
     2  C(13)             -0.01137     -12.78633      -4.56248      -4.26506
     3  C(13)              0.43158     485.17930     173.12404     161.83840
     4  C(13)              0.00356       4.00757       1.43000       1.33678
     5  C(13)              0.05423      60.96122      21.75248      20.33447
     6  C(13)             -0.01043     -11.72017      -4.18205      -3.90943
     7  Cl(35)             0.00144       0.63102       0.22516       0.21048
     8  Cl(35)             0.00468       2.05163       0.73207       0.68435
     9  Cl(35)             0.01994       8.74138       3.11914       2.91581
    10  H(1)               0.01208      53.99315      19.26610      18.01018
    11  H(1)               0.00313      13.97834       4.98782       4.66267
 --------------------------------------------------------
       Center         ----  Spin Dipole Couplings  ----
                      3XX-RR        3YY-RR        3ZZ-RR
 --------------------------------------------------------
     1   Atom        0.016951     -0.020518      0.003567
     2   Atom       -0.019123      0.123713     -0.104590
     3   Atom        0.712835     -0.318644     -0.394191
     4   Atom        0.085204      0.014579     -0.099783
     5   Atom        0.041737     -0.034854     -0.006883
     6   Atom        0.034359      0.023829     -0.058189
     7   Atom        0.026331      0.025162     -0.051493
     8   Atom        0.000103      0.032563     -0.032666
     9   Atom        0.002137      0.148068     -0.150205
    10   Atom        0.000549      0.011419     -0.011967
    11   Atom        0.007801     -0.002471     -0.005330
 --------------------------------------------------------
                        XY            XZ            YZ
 --------------------------------------------------------
     1   Atom        0.018956      0.000000      0.000000
     2   Atom        0.002478      0.000000     -0.000000
     3   Atom        0.575131     -0.000000      0.000000
     4   Atom       -0.040397      0.000000     -0.000000
     5   Atom        0.026529      0.000000     -0.000000
     6   Atom        0.006407      0.000000      0.000000
     7   Atom        0.005126      0.000000      0.000000
     8   Atom        0.090353      0.000000      0.000000
     9   Atom       -0.135100     -0.000000      0.000000
    10   Atom       -0.015440      0.000000     -0.000000
    11   Atom       -0.005563      0.000000     -0.000000
 --------------------------------------------------------


 ---------------------------------------------------------------------------------
              Anisotropic Spin Dipole Couplings in Principal Axis System
 ---------------------------------------------------------------------------------

       Atom             a.u.   MegaHertz   Gauss  10(-4) cm-1        Axes

              Baa    -0.0284    -3.816    -1.362    -1.273 -0.3854  0.9228 -0.0000
     1 C(13)  Bbb     0.0036     0.479     0.171     0.160  0.0000  0.0000  1.0000
              Bcc     0.0249     3.337     1.191     1.113  0.9228  0.3854  0.0000
 
              Baa    -0.1046   -14.035    -5.008    -4.682  0.0000  0.0000  1.0000
     2 C(13)  Bbb    -0.0192    -2.572    -0.918    -0.858  0.9998 -0.0173  0.0000
              Bcc     0.1238    16.607     5.926     5.539  0.0173  0.9998 -0.0000
 
              Baa    -0.5754   -77.214   -27.552   -25.756 -0.4077  0.9131 -0.0000
     3 C(13)  Bbb    -0.3942   -52.897   -18.875   -17.644  0.0000  0.0000  1.0000
              Bcc     0.9696   130.111    46.427    43.400  0.9131  0.4077  0.0000
 
              Baa    -0.0998   -13.390    -4.778    -4.466  0.0000  0.0000  1.0000
     4 C(13)  Bbb    -0.0038    -0.505    -0.180    -0.168  0.4134  0.9105 -0.0000
              Bcc     0.1035    13.895     4.958     4.635  0.9105 -0.4134  0.0000
 
              Baa    -0.0431    -5.790    -2.066    -1.931 -0.2983  0.9545 -0.0000
     5 C(13)  Bbb    -0.0069    -0.924    -0.330    -0.308  0.0000  0.0000  1.0000
              Bcc     0.0500     6.713     2.395     2.239  0.9545  0.2983  0.0000
 
              Baa    -0.0582    -7.808    -2.786    -2.605  0.0000  0.0000  1.0000
     6 C(13)  Bbb     0.0208     2.791     0.996     0.931 -0.4273  0.9041  0.0000
              Bcc     0.0374     5.017     1.790     1.673  0.9041  0.4273 -0.0000
 
              Baa    -0.0515    -2.695    -0.962    -0.899  0.0000  0.0000  1.0000
     7 Cl(35) Bbb     0.0206     1.078     0.384     0.359 -0.6659  0.7461  0.0000
              Bcc     0.0309     1.618     0.577     0.540  0.7461  0.6659 -0.0000
 
              Baa    -0.0755    -3.950    -1.409    -1.317  0.7671 -0.6416 -0.0000
     8 Cl(35) Bbb    -0.0327    -1.710    -0.610    -0.570  0.0000  0.0000  1.0000
              Bcc     0.1081     5.659     2.019     1.888  0.6416  0.7671 -0.0000
 
              Baa    -0.1502    -7.861    -2.805    -2.622  0.0000  0.0000  1.0000
     9 Cl(35) Bbb    -0.0784    -4.106    -1.465    -1.369  0.8588  0.5122 -0.0000
              Bcc     0.2286    11.967     4.270     3.992 -0.5122  0.8588 -0.0000
 
              Baa    -0.0120    -6.385    -2.278    -2.130  0.0000  0.0000  1.0000
    10 H(1)   Bbb    -0.0104    -5.541    -1.977    -1.848  0.8161  0.5779 -0.0000
              Bcc     0.0224    11.926     4.255     3.978 -0.5779  0.8161 -0.0000
 
              Baa    -0.0053    -2.844    -1.015    -0.949  0.0000  0.0000  1.0000
    11 H(1)   Bbb    -0.0049    -2.618    -0.934    -0.873  0.4010  0.9161 -0.0000
              Bcc     0.0102     5.462     1.949     1.822  0.9161 -0.4010  0.0000
 

 ---------------------------------------------------------------------------------

 Calling FoFJK, ICntrl=      2127 FMM=F ISym2X=1 I1Cent= 0 IOpClX= 1 NMat=1 NMatS=1 NMatT=0.
 ***** Axes restored to original set *****
 -------------------------------------------------------------------
 Center     Atomic                   Forces (Hartrees/Bohr)
 Number     Number              X              Y              Z
 -------------------------------------------------------------------
      1        6           0.025951204   -0.011136588    0.000000000
      2        6          -0.005800623   -0.043357821    0.000000000
      3        6           0.006585940    0.008684798    0.000000000
      4        6          -0.008631384   -0.003930658   -0.000000000
      5        6           0.001746683    0.001288453    0.000000000
      6        6           0.026252495    0.010464758    0.000000000
      7       17          -0.017286043   -0.010926610   -0.000000000
      8       17          -0.017595663    0.009441566   -0.000000000
      9       17           0.000753060    0.023728979   -0.000000000
     10        1          -0.009188976    0.004235052   -0.000000000
     11        1          -0.002786693    0.011508070   -0.000000000
 -------------------------------------------------------------------
 Cartesian Forces:  Max     0.043357821 RMS     0.012728348

 GradGradGradGradGradGradGradGradGradGradGradGradGradGradGradGradGradGrad
 Berny optimization.
 FormGI is forming the generalized inverse of G from B-inverse, IUseBI=4.
 Internal  Forces:  Max     0.023739994 RMS     0.007263314
 Search for a local minimum.
 Step number   1 out of a maximum of   57
 All quantities printed in internal units (Hartrees-Bohrs-Radians)
 Mixed Optimization -- RFO/linear search
 Second derivative matrix not updated -- first step.
 ITU=  0
     Eigenvalues ---    0.01852   0.01898   0.01932   0.01991   0.02003
     Eigenvalues ---    0.02020   0.02169   0.02376   0.16000   0.16000
     Eigenvalues ---    0.22452   0.24417   0.25000   0.25000   0.25000
     Eigenvalues ---    0.25000   0.33694   0.34011   0.36609   0.37728
     Eigenvalues ---    0.38470   0.40237   0.41516   0.43337   0.44179
     Eigenvalues ---    0.48639   0.50379
 RFO step:  Lambda=-6.74461854D-03 EMin= 1.85161883D-02
 Linear search not attempted -- first point.
 Iteration  1 RMS(Cart)=  0.01939559 RMS(Int)=  0.00018276
 Iteration  2 RMS(Cart)=  0.00022690 RMS(Int)=  0.00004176
 Iteration  3 RMS(Cart)=  0.00000004 RMS(Int)=  0.00004176
 ClnCor:  largest displacement from symmetrization is 2.79D-12 for atom    10.
 Variable       Old X    -DE/DX   Delta X   Delta X   Delta X     New X
                                 (Linear)    (Quad)   (Total)
    R1        2.68449  -0.00976   0.00000  -0.02229  -0.02229   2.66220
    R2        2.67402  -0.00991   0.00000  -0.02283  -0.02288   2.65114
    R3        3.18463   0.01997   0.00000   0.05200   0.05200   3.23662
    R4        2.59894  -0.00751   0.00000  -0.01432  -0.01426   2.58468
    R5        3.17386   0.02374   0.00000   0.06065   0.06065   3.23451
    R6        2.58684  -0.00360   0.00000  -0.00671  -0.00665   2.58019
    R7        2.65791  -0.00971   0.00000  -0.02182  -0.02183   2.63608
    R8        2.07312  -0.01011   0.00000  -0.02915  -0.02915   2.04397
    R9        2.66126  -0.01451   0.00000  -0.03286  -0.03292   2.62834
   R10        2.07849  -0.01155   0.00000  -0.03360  -0.03360   2.04490
   R11        3.20141   0.02045   0.00000   0.05485   0.05485   3.25626
    A1        2.07399   0.00033   0.00000   0.00091   0.00085   2.07484
    A2        2.09686  -0.00005   0.00000   0.00001   0.00004   2.09690
    A3        2.11233  -0.00028   0.00000  -0.00092  -0.00089   2.11144
    A4        2.00986   0.00684   0.00000   0.02774   0.02780   2.03766
    A5        2.14447  -0.00317   0.00000  -0.01291  -0.01294   2.13153
    A6        2.12886  -0.00367   0.00000  -0.01483  -0.01486   2.11400
    A7        2.25626  -0.01236   0.00000  -0.04706  -0.04690   2.20936
    A8        2.00814   0.00528   0.00000   0.02228   0.02233   2.03047
    A9        2.14216  -0.00224   0.00000  -0.00874  -0.00876   2.13340
   A10        2.13288  -0.00304   0.00000  -0.01354  -0.01357   2.11931
   A11        2.09200   0.00224   0.00000   0.00724   0.00717   2.09917
   A12        2.09557   0.00161   0.00000   0.01274   0.01278   2.10834
   A13        2.09562  -0.00385   0.00000  -0.01998  -0.01995   2.07567
   A14        2.12612  -0.00232   0.00000  -0.01112  -0.01125   2.11487
   A15        2.09535   0.00096   0.00000   0.00478   0.00484   2.10019
   A16        2.06171   0.00136   0.00000   0.00635   0.00641   2.06812
    D1        0.00000   0.00000   0.00000   0.00000   0.00000   0.00000
    D2        3.14159   0.00000   0.00000   0.00000   0.00000   3.14159
    D3        3.14159   0.00000   0.00000   0.00000   0.00000   3.14159
    D4        0.00000   0.00000   0.00000   0.00000  -0.00000   0.00000
    D5       -0.00000  -0.00000   0.00000  -0.00000   0.00000   0.00000
    D6        3.14159  -0.00000   0.00000  -0.00000   0.00000   3.14159
    D7        3.14159  -0.00000   0.00000  -0.00000   0.00000   3.14159
    D8       -0.00000  -0.00000   0.00000   0.00000   0.00000   0.00000
    D9        0.00000  -0.00000   0.00000  -0.00000  -0.00000   0.00000
   D10        3.14159  -0.00000   0.00000  -0.00000   0.00000   3.14159
   D11       -0.00000  -0.00000   0.00000  -0.00000   0.00000   0.00000
   D12        3.14159  -0.00000   0.00000  -0.00000   0.00000   3.14159
   D13        0.00000   0.00000   0.00000   0.00000  -0.00000   0.00000
   D14        3.14159   0.00000   0.00000   0.00000   0.00000   3.14159
   D15        3.14159   0.00000   0.00000   0.00000   0.00000   3.14159
   D16       -0.00000   0.00000   0.00000   0.00000   0.00000   0.00000
   D17        0.00000  -0.00000   0.00000  -0.00000  -0.00000   0.00000
   D18        3.14159  -0.00000   0.00000  -0.00000   0.00000   3.14159
   D19        3.14159  -0.00000   0.00000   0.00000   0.00000   3.14159
   D20       -0.00000  -0.00000   0.00000  -0.00000   0.00000   0.00000
         Item               Value     Threshold  Converged?
 Maximum Force            0.023740     0.000450     NO 
 RMS     Force            0.007263     0.000300     NO 
 Maximum Displacement     0.058200     0.001800     NO 
 RMS     Displacement     0.019414     0.001200     NO 
 Predicted change in Energy=-3.436504D-03
 GradGradGradGradGradGradGradGradGradGradGradGradGradGradGradGradGradGrad

                          Input orientation:                          
 ---------------------------------------------------------------------
 Center     Atomic      Atomic             Coordinates (Angstroms)
 Number     Number       Type             X           Y           Z
 ---------------------------------------------------------------------
      1          6           0       -3.165752    0.122577    0.000000
      2          6           0       -1.961094    0.852954    0.000000
      3          6           0       -0.801456    0.127701    0.000000
      4          6           0       -0.692798   -1.233347    0.000000
      5          6           0       -1.889739   -1.949749    0.000000
      6          6           0       -3.108265   -1.279168    0.000000
      7         17           0       -4.558621   -2.209578    0.000000
      8         17           0       -4.669111    0.943198   -0.000000
      9         17           0       -1.934230    2.564372   -0.000000
     10          1           0        0.265121   -1.735639    0.000000
     11          1           0       -1.887805   -3.031861    0.000000
 ---------------------------------------------------------------------
                    Distance matrix (angstroms):
                    1          2          3          4          5
     1  C    0.000000
     2  C    1.408777   0.000000
     3  C    2.364302   1.367754   0.000000
     4  C    2.820289   2.441562   1.365379   0.000000
     5  C    2.433670   2.803612   2.345242   1.394955   0.000000
     6  C    1.402923   2.421146   2.701971   2.415901   1.390858
     7  Cl   2.716438   4.015751   4.424835   3.987181   2.681500
     8  Cl   1.712748   2.709521   3.952694   4.533035   4.011739
     9  Cl   2.734777   1.711629   2.687107   3.995476   4.514341
    10  H    3.901776   3.414212   2.147003   1.081622   2.165471
    11  H    3.403474   3.885507   3.341106   2.159327   1.082114
                    6          7          8          9         10
     6  C    0.000000
     7  Cl   1.723136   0.000000
     8  Cl   2.715722   3.154712   0.000000
     9  Cl   4.018850   5.447755   3.179273   0.000000
    10  H    3.404129   4.846969   5.614518   4.829828   0.000000
    11  H    2.135757   2.794532   4.851470   5.596426   2.513022
                   11
    11  H    0.000000
 Stoichiometry    C6H2Cl3(2)
 Framework group  CS[SG(C6H2Cl3)]
 Deg. of freedom    19
 Full point group                 CS      NOp   2
 Largest Abelian subgroup         CS      NOp   2
 Largest concise Abelian subgroup C1      NOp   1
                         Standard orientation:                         
 ---------------------------------------------------------------------
 Center     Atomic      Atomic             Coordinates (Angstroms)
 Number     Number       Type             X           Y           Z
 ---------------------------------------------------------------------
      1          6           0       -0.000000   -0.278952   -0.000000
      2          6           0        1.275755    0.318626   -0.000000
      3          6           0        1.315150    1.685813   -0.000000
      4          6           0        0.242708    2.530874    0.000000
      5          6           0       -1.017138    1.931970    0.000000
      6          6           0       -1.134682    0.546088    0.000000
      7         17           0       -2.713136   -0.145056    0.000000
      8         17           0       -0.150605   -1.985066   -0.000000
      9         17           0        2.714920   -0.607915   -0.000000
     10          1           0        0.355812    3.606566    0.000000
     11          1           0       -1.916617    2.533557    0.000000
 ---------------------------------------------------------------------
 Rotational constants (GHZ):           1.5369832           0.8538147           0.5488958
 Standard basis: 6-311++G(d,p) (5D, 7F)
 There are   183 symmetry adapted cartesian basis functions of A'  symmetry.
 There are    62 symmetry adapted cartesian basis functions of A"  symmetry.
 There are   174 symmetry adapted basis functions of A'  symmetry.
 There are    62 symmetry adapted basis functions of A"  symmetry.
   236 basis functions,   393 primitive gaussians,   245 cartesian basis functions
    45 alpha electrons       44 beta electrons
       nuclear repulsion energy       635.5982216264 Hartrees.
 NAtoms=   11 NActive=   11 NUniq=   11 SFac= 1.00D+00 NAtFMM=   60 NAOKFM=F Big=F
 Integral buffers will be    131072 words long.
 Raffenetti 2 integral format.
 Two-electron integral symmetry is turned on.
 One-electron integrals computed using PRISM.
 NBasis=   236 RedAO= T EigKep=  1.21D-06  NBF=   174    62
 NBsUse=   235 1.00D-06 EigRej=  9.39D-07 NBFU=   173    62
 Initial guess from the checkpoint file:  "frequency_chks/1234-123_-ClBzNeutralRadical_Freq.chk"
 B after Tr=    -0.000000    0.000000   -0.000000
         Rot=    1.000000    0.000000    0.000000    0.000407 Ang=   0.05 deg.
 Initial guess orbital symmetries:
 Alpha Orbitals:
       Occupied  (A') (A') (A') (A') (A') (A') (A') (A') (A') (A')
                 (A') (A') (A') (A') (A') (A") (A') (A") (A') (A")
                 (A') (A') (A') (A') (A') (A') (A') (A') (A') (A')
                 (A') (A') (A') (A") (A') (A') (A") (A") (A') (A")
                 (A') (A') (A') (A") (A")
       Virtual   (A") (A") (A') (A') (A') (A') (A') (A') (A") (A')
                 (A') (A") (A') (A") (A') (A") (A') (A') (A') (A")
                 (A") (A') (A') (A') (A') (A") (A') (A') (A") (A")
                 (A') (A') (A') (A') (A') (A") (A') (A') (A') (A')
                 (A') (A') (A') (A') (A') (A') (A') (A') (A') (A')
                 (A') (A") (A') (A") (A') (A') (A') (A") (A') (A')
                 (A") (A') (A") (A') (A") (A') (A") (A") (A') (A')
                 (A') (A") (A') (A') (A') (A") (A') (A') (A') (A")
                 (A') (A') (A') (A') (A") (A") (A") (A') (A') (A')
                 (A') (A") (A') (A') (A') (A") (A') (A") (A') (A')
                 (A') (A") (A') (A') (A') (A") (A') (A") (A") (A')
                 (A') (A') (A') (A") (A') (A") (A') (A') (A') (A')
                 (A') (A") (A") (A") (A') (A") (A') (A') (A') (A")
                 (A') (A') (A") (A") (A') (A") (A") (A') (A') (A')
                 (A') (A') (A') (A') (A') (A') (A") (A') (A') (A')
                 (A') (A") (A") (A") (A") (A') (A") (A') (A') (A')
                 (A') (A') (A') (A') (A') (A') (A') (A') (A') (A')
                 (A') (A') (A') (A') (A') (A') (A') (A') (A") (A")
                 (A") (A') (A') (A') (A') (A') (A') (A') (A') (A')
 Beta  Orbitals:
       Occupied  (A') (A') (A') (A') (A') (A') (A') (A') (A') (A')
                 (A') (A') (A') (A') (A') (A") (A') (A") (A') (A")
                 (A') (A') (A') (A') (A') (A') (A') (A') (A') (A')
                 (A') (A') (A') (A") (A') (A') (A") (A") (A') (A")
                 (A') (A') (A") (A")
       Virtual   (A') (A") (A') (A") (A') (A') (A') (A') (A') (A")
                 (A') (A') (A") (A") (A') (A') (A") (A') (A') (A")
                 (A') (A') (A") (A') (A') (A") (A') (A') (A') (A")
                 (A") (A') (A') (A') (A') (A') (A") (A') (A') (A')
                 (A') (A') (A') (A') (A') (A') (A') (A') (A') (A')
                 (A') (A") (A') (A') (A") (A') (A') (A') (A") (A')
                 (A') (A") (A') (A') (A") (A") (A') (A") (A") (A')
                 (A') (A') (A") (A') (A') (A') (A") (A') (A') (A')
                 (A") (A') (A') (A') (A') (A") (A") (A") (A') (A')
                 (A') (A') (A') (A") (A') (A') (A") (A') (A") (A')
                 (A') (A') (A") (A') (A') (A') (A") (A') (A") (A")
                 (A') (A') (A') (A') (A") (A') (A") (A') (A') (A')
                 (A') (A') (A") (A") (A") (A') (A") (A') (A') (A')
                 (A") (A') (A') (A") (A") (A') (A") (A") (A') (A')
                 (A') (A') (A') (A') (A') (A') (A') (A") (A') (A')
                 (A') (A') (A") (A") (A") (A") (A') (A") (A') (A')
                 (A') (A') (A') (A') (A') (A') (A') (A') (A') (A')
                 (A') (A') (A') (A') (A') (A') (A') (A') (A') (A")
                 (A") (A") (A') (A') (A') (A') (A') (A') (A') (A')
                 (A')
 Initial guess <Sx>= 0.0000 <Sy>= 0.0000 <Sz>= 0.5000 <S**2>= 0.7633 S= 0.5066
 ExpMin= 3.60D-02 ExpMax= 1.06D+05 ExpMxC= 3.62D+03 IAcc=3 IRadAn=         5 AccDes= 0.00D+00
 Harris functional with IExCor= 1009 and IRadAn=       5 diagonalized for initial guess.
 HarFok:  IExCor= 1009 AccDes= 0.00D+00 IRadAn=         5 IDoV= 1 UseB2=F ITyADJ=14
 ICtDFT=  3500011 ScaDFX=  1.000000  1.000000  1.000000  1.000000
 FoFCou: FMM=F IPFlag=           0 FMFlag=      100000 FMFlg1=           0
         NFxFlg=           0 DoJE=T BraDBF=F KetDBF=T FulRan=T
         wScrn=  0.000000 ICntrl=       500 IOpCl=  0 I1Cent=   200000004 NGrid=           0
         NMat0=    1 NMatS0=      1 NMatT0=    0 NMatD0=    1 NMtDS0=    0 NMtDT0=    0
 Petite list used in FoFCou.
 Keep R1 and R2 ints in memory in symmetry-blocked form, NReq=617299900.
 Requested convergence on RMS density matrix=1.00D-08 within 128 cycles.
 Requested convergence on MAX density matrix=1.00D-06.
 Requested convergence on             energy=1.00D-06.
 No special actions if energy rises.
 SCF Done:  E(UM062X) =  -1610.30291045     A.U. after   16 cycles
            NFock= 16  Conv=0.95D-08     -V/T= 2.0023
 <Sx>= 0.0000 <Sy>= 0.0000 <Sz>= 0.5000 <S**2>= 0.7629 S= 0.5064
 <L.S>=  0.00000000000    
 Annihilation of the first spin contaminant:
 S**2 before annihilation     0.7629,   after     0.7501
 Calling FoFJK, ICntrl=      2127 FMM=F ISym2X=1 I1Cent= 0 IOpClX= 1 NMat=1 NMatS=1 NMatT=0.
 ***** Axes restored to original set *****
 -------------------------------------------------------------------
 Center     Atomic                   Forces (Hartrees/Bohr)
 Number     Number              X              Y              Z
 -------------------------------------------------------------------
      1        6           0.005999256   -0.000644804    0.000000000
      2        6          -0.004895215   -0.013184956    0.000000000
      3        6           0.003506836    0.005124938    0.000000000
      4        6          -0.002905389   -0.001680924   -0.000000000
      5        6           0.001083096   -0.000697244    0.000000000
      6        6           0.004470578    0.004678710    0.000000000
      7       17          -0.003786907   -0.002508894   -0.000000000
      8       17          -0.004514042    0.002347934   -0.000000000
      9       17           0.000651666    0.007583399   -0.000000000
     10        1           0.000422910   -0.000633582    0.000000000
     11        1          -0.000032789   -0.000384578    0.000000000
 -------------------------------------------------------------------
 Cartesian Forces:  Max     0.013184956 RMS     0.003621338

 GradGradGradGradGradGradGradGradGradGradGradGradGradGradGradGradGradGrad
 Berny optimization.
 Using GEDIIS/GDIIS optimizer.
 FormGI is forming the generalized inverse of G from B-inverse, IUseBI=4.
 Internal  Forces:  Max     0.007591849 RMS     0.001801519
 Search for a local minimum.
 Step number   2 out of a maximum of   57
 All quantities printed in internal units (Hartrees-Bohrs-Radians)
 Mixed Optimization -- RFO/linear search
 Update second derivatives using D2CorX and points    1    2
 DE= -4.02D-03 DEPred=-3.44D-03 R= 1.17D+00
 TightC=F SS=  1.41D+00  RLast= 1.38D-01 DXNew= 5.0454D-01 4.1485D-01
 Trust test= 1.17D+00 RLast= 1.38D-01 DXMaxT set to 4.15D-01
 ITU=  1  0
 Use linear search instead of GDIIS.
     Eigenvalues ---    0.01852   0.01898   0.01932   0.01991   0.02002
     Eigenvalues ---    0.02020   0.02170   0.02369   0.15968   0.16057
     Eigenvalues ---    0.21572   0.23035   0.24892   0.25000   0.25000
     Eigenvalues ---    0.25059   0.31447   0.33841   0.34949   0.37064
     Eigenvalues ---    0.38102   0.40179   0.41812   0.43503   0.44133
     Eigenvalues ---    0.49744   0.51161
 RFO step:  Lambda=-2.61945565D-04 EMin= 1.85160309D-02
 Quartic linear search produced a step of  0.24753.
 Iteration  1 RMS(Cart)=  0.00499898 RMS(Int)=  0.00003080
 Iteration  2 RMS(Cart)=  0.00003507 RMS(Int)=  0.00001870
 Iteration  3 RMS(Cart)=  0.00000000 RMS(Int)=  0.00001870
 ClnCor:  largest displacement from symmetrization is 1.35D-10 for atom     7.
 Variable       Old X    -DE/DX   Delta X   Delta X   Delta X     New X
                                 (Linear)    (Quad)   (Total)
    R1        2.66220  -0.00341  -0.00552  -0.00569  -0.01120   2.65100
    R2        2.65114  -0.00142  -0.00566   0.00031  -0.00537   2.64577
    R3        3.23662   0.00509   0.01287   0.00592   0.01879   3.25542
    R4        2.58468   0.00053  -0.00353   0.00439   0.00089   2.58557
    R5        3.23451   0.00759   0.01501   0.01191   0.02692   3.26143
    R6        2.58019   0.00256  -0.00165   0.00795   0.00632   2.58652
    R7        2.63608  -0.00079  -0.00540   0.00265  -0.00276   2.63332
    R8        2.04397   0.00067  -0.00722   0.00856   0.00134   2.04531
    R9        2.62834   0.00027  -0.00815   0.00758  -0.00060   2.62774
   R10        2.04490   0.00039  -0.00832   0.00846   0.00014   2.04504
   R11        3.25626   0.00454   0.01358   0.00399   0.01756   3.27382
    A1        2.07484  -0.00058   0.00021  -0.00441  -0.00422   2.07063
    A2        2.09690   0.00044   0.00001   0.00285   0.00286   2.09976
    A3        2.11144   0.00014  -0.00022   0.00156   0.00135   2.11279
    A4        2.03766   0.00279   0.00688   0.00756   0.01448   2.05214
    A5        2.13153  -0.00052  -0.00320   0.00040  -0.00282   2.12871
    A6        2.11400  -0.00228  -0.00368  -0.00797  -0.01166   2.10234
    A7        2.20936  -0.00324  -0.01161  -0.00538  -0.01692   2.19244
    A8        2.03047   0.00079   0.00553   0.00104   0.00658   2.03705
    A9        2.13340  -0.00001  -0.00217   0.00195  -0.00022   2.13318
   A10        2.11931  -0.00078  -0.00336  -0.00300  -0.00636   2.11295
   A11        2.09917  -0.00047   0.00177  -0.00382  -0.00208   2.09708
   A12        2.10834   0.00028   0.00316  -0.00119   0.00199   2.11034
   A13        2.07567   0.00019  -0.00494   0.00501   0.00009   2.07576
   A14        2.11487   0.00071  -0.00278   0.00500   0.00216   2.11703
   A15        2.10019  -0.00026   0.00120  -0.00187  -0.00065   2.09954
   A16        2.06812  -0.00045   0.00159  -0.00312  -0.00151   2.06661
    D1        0.00000  -0.00000   0.00000  -0.00000   0.00000   0.00000
    D2        3.14159   0.00000   0.00000  -0.00000   0.00000   3.14159
    D3        3.14159  -0.00000   0.00000  -0.00000   0.00000   3.14159
    D4       -0.00000  -0.00000   0.00000  -0.00000   0.00000   0.00000
    D5        0.00000  -0.00000   0.00000   0.00000   0.00000   0.00000
    D6        3.14159  -0.00000   0.00000   0.00000   0.00000   3.14159
    D7        3.14159   0.00000   0.00000   0.00000   0.00000   3.14159
    D8        0.00000   0.00000   0.00000   0.00000  -0.00000   0.00000
    D9       -0.00000  -0.00000   0.00000   0.00000   0.00000   0.00000
   D10        3.14159  -0.00000   0.00000   0.00000   0.00000   3.14159
   D11       -0.00000   0.00000   0.00000   0.00000   0.00000   0.00000
   D12        3.14159   0.00000   0.00000   0.00000   0.00000   3.14159
   D13        0.00000  -0.00000   0.00000  -0.00000  -0.00000   0.00000
   D14        3.14159   0.00000   0.00000  -0.00000   0.00000   3.14159
   D15        3.14159  -0.00000   0.00000  -0.00000   0.00000   3.14159
   D16       -0.00000  -0.00000   0.00000  -0.00000   0.00000   0.00000
   D17       -0.00000  -0.00000   0.00000   0.00000   0.00000   0.00000
   D18        3.14159  -0.00000   0.00000   0.00000   0.00000   3.14159
   D19        3.14159  -0.00000   0.00000   0.00000   0.00000   3.14159
   D20        0.00000  -0.00000   0.00000   0.00000   0.00000   0.00000
         Item               Value     Threshold  Converged?
 Maximum Force            0.007592     0.000450     NO 
 RMS     Force            0.001802     0.000300     NO 
 Maximum Displacement     0.015400     0.001800     NO 
 RMS     Displacement     0.004991     0.001200     NO 
 Predicted change in Energy=-2.892730D-04
 GradGradGradGradGradGradGradGradGradGradGradGradGradGradGradGradGradGrad

                          Input orientation:                          
 ---------------------------------------------------------------------
 Center     Atomic      Atomic             Coordinates (Angstroms)
 Number     Number       Type             X           Y           Z
 ---------------------------------------------------------------------
      1          6           0       -3.164125    0.121295    0.000000
      2          6           0       -1.962241    0.844805    0.000000
      3          6           0       -0.794067    0.132478    0.000000
      4          6           0       -0.692785   -1.232495    0.000000
      5          6           0       -1.887767   -1.949319    0.000000
      6          6           0       -3.105276   -1.277547    0.000000
      7         17           0       -4.563074   -2.213571    0.000000
      8         17           0       -4.675969    0.947129   -0.000000
      9         17           0       -1.934561    2.570458   -0.000000
     10          1           0        0.263044   -1.740265    0.000000
     11          1           0       -1.886929   -3.031508    0.000000
 ---------------------------------------------------------------------
                    Distance matrix (angstroms):
                    1          2          3          4          5
     1  C    0.000000
     2  C    1.402851   0.000000
     3  C    2.370084   1.368225   0.000000
     4  C    2.817848   2.434480   1.368726   0.000000
     5  C    2.432392   2.795116   2.351608   1.393492   0.000000
     6  C    1.400079   2.410583   2.707371   2.412912   1.390541
     7  Cl   2.721886   4.014723   4.439523   3.992699   2.688326
     8  Cl   1.722694   2.715656   3.966461   4.540541   4.020383
     9  Cl   2.740478   1.725874   2.691555   4.000557   4.520019
    10  H    3.900114   3.410935   2.150500   1.082331   2.160948
    11  H    3.401676   3.877045   3.347411   2.159266   1.082190
                    6          7          8          9         10
     6  C    0.000000
     7  Cl   1.732431   0.000000
     8  Cl   2.723281   3.162716   0.000000
     9  Cl   4.022153   5.458572   3.185986   0.000000
    10  H    3.399955   4.849272   5.622805   4.838574   0.000000
    11  H    2.135592   2.798352   4.858837   5.602169   2.507927
                   11
    11  H    0.000000
 Stoichiometry    C6H2Cl3(2)
 Framework group  CS[SG(C6H2Cl3)]
 Deg. of freedom    19
 Full point group                 CS      NOp   2
 Largest Abelian subgroup         CS      NOp   2
 Largest concise Abelian subgroup C1      NOp   1
                         Standard orientation:                         
 ---------------------------------------------------------------------
 Center     Atomic      Atomic             Coordinates (Angstroms)
 Number     Number       Type             X           Y           Z
 ---------------------------------------------------------------------
      1          6           0       -0.000000   -0.275200   -0.000000
      2          6           0        1.268015    0.324909    0.000000
      3          6           0        1.321787    1.692076    0.000000
      4          6           0        0.241305    2.532296    0.000000
      5          6           0       -1.017320    1.934232    0.000000
      6          6           0       -1.132182    0.548443    0.000000
      7         17           0       -2.718868   -0.147073   -0.000000
      8         17           0       -0.149574   -1.991388   -0.000000
      9         17           0        2.720237   -0.607664    0.000000
     10          1           0        0.347816    3.609374    0.000000
     11          1           0       -1.917959    2.534218    0.000000
 ---------------------------------------------------------------------
 Rotational constants (GHZ):           1.5300996           0.8510509           0.5468754
 Standard basis: 6-311++G(d,p) (5D, 7F)
 There are   183 symmetry adapted cartesian basis functions of A'  symmetry.
 There are    62 symmetry adapted cartesian basis functions of A"  symmetry.
 There are   174 symmetry adapted basis functions of A'  symmetry.
 There are    62 symmetry adapted basis functions of A"  symmetry.
   236 basis functions,   393 primitive gaussians,   245 cartesian basis functions
    45 alpha electrons       44 beta electrons
       nuclear repulsion energy       634.3397283668 Hartrees.
 NAtoms=   11 NActive=   11 NUniq=   11 SFac= 1.00D+00 NAtFMM=   60 NAOKFM=F Big=F
 Integral buffers will be    131072 words long.
 Raffenetti 2 integral format.
 Two-electron integral symmetry is turned on.
 One-electron integrals computed using PRISM.
 NBasis=   236 RedAO= T EigKep=  1.23D-06  NBF=   174    62
 NBsUse=   235 1.00D-06 EigRej=  9.51D-07 NBFU=   173    62
 Initial guess from the checkpoint file:  "frequency_chks/1234-123_-ClBzNeutralRadical_Freq.chk"
 B after Tr=     0.000000    0.000000   -0.000000
         Rot=    1.000000    0.000000   -0.000000   -0.000281 Ang=  -0.03 deg.
 Initial guess orbital symmetries:
 Alpha Orbitals:
       Occupied  (A') (A') (A') (A') (A') (A') (A') (A') (A') (A')
                 (A') (A') (A') (A') (A') (A") (A") (A') (A') (A")
                 (A') (A') (A') (A') (A') (A') (A') (A') (A') (A')
                 (A') (A') (A') (A") (A') (A') (A") (A") (A') (A")
                 (A') (A') (A') (A") (A")
       Virtual   (A") (A") (A') (A') (A') (A') (A') (A') (A") (A')
                 (A') (A') (A") (A") (A') (A") (A') (A') (A') (A")
                 (A") (A') (A') (A') (A') (A") (A') (A') (A") (A")
                 (A') (A') (A') (A') (A') (A") (A') (A') (A') (A')
                 (A') (A') (A') (A') (A') (A') (A') (A') (A') (A')
                 (A') (A") (A') (A") (A') (A') (A') (A") (A') (A')
                 (A") (A') (A") (A') (A") (A') (A") (A") (A') (A')
                 (A') (A") (A') (A') (A') (A") (A') (A') (A') (A")
                 (A') (A') (A') (A') (A") (A") (A") (A') (A') (A')
                 (A') (A') (A") (A') (A') (A") (A') (A") (A') (A')
                 (A') (A") (A') (A') (A') (A") (A') (A") (A") (A')
                 (A') (A') (A') (A") (A') (A') (A") (A') (A') (A')
                 (A') (A") (A") (A") (A') (A") (A') (A') (A') (A")
                 (A') (A') (A") (A") (A') (A") (A") (A') (A') (A')
                 (A') (A') (A') (A') (A') (A') (A") (A') (A') (A')
                 (A') (A") (A") (A") (A") (A') (A") (A') (A') (A')
                 (A') (A') (A') (A') (A') (A') (A') (A') (A') (A')
                 (A') (A') (A') (A') (A') (A') (A') (A') (A") (A")
                 (A") (A') (A') (A') (A') (A') (A') (A') (A') (A')
 Beta  Orbitals:
       Occupied  (A') (A') (A') (A') (A') (A') (A') (A') (A') (A')
                 (A') (A') (A') (A') (A') (A") (A") (A') (A') (A")
                 (A') (A') (A') (A') (A') (A') (A') (A') (A') (A')
                 (A') (A') (A') (A") (A') (A') (A") (A") (A') (A")
                 (A') (A') (A") (A")
       Virtual   (A') (A") (A') (A") (A') (A') (A') (A') (A') (A")
                 (A') (A') (A") (A') (A") (A') (A") (A') (A') (A")
                 (A') (A') (A") (A') (A') (A') (A") (A') (A') (A")
                 (A') (A") (A') (A') (A') (A') (A") (A') (A') (A')
                 (A') (A') (A') (A') (A') (A') (A') (A') (A') (A')
                 (A') (A") (A') (A') (A") (A') (A') (A') (A") (A')
                 (A') (A") (A') (A') (A") (A") (A') (A") (A") (A')
                 (A') (A') (A") (A') (A') (A') (A") (A') (A') (A')
                 (A") (A') (A') (A') (A') (A") (A") (A") (A') (A')
                 (A') (A') (A') (A') (A") (A') (A") (A') (A") (A')
                 (A') (A') (A") (A') (A') (A') (A") (A') (A") (A")
                 (A') (A') (A') (A') (A") (A') (A') (A") (A') (A')
                 (A') (A') (A") (A") (A") (A') (A") (A') (A') (A')
                 (A") (A') (A') (A") (A") (A') (A") (A") (A') (A')
                 (A') (A') (A') (A') (A') (A') (A') (A") (A') (A')
                 (A') (A') (A") (A") (A") (A") (A') (A") (A') (A')
                 (A') (A') (A') (A') (A') (A') (A') (A') (A') (A')
                 (A') (A') (A') (A') (A') (A') (A') (A') (A') (A")
                 (A") (A") (A') (A') (A') (A') (A') (A') (A') (A')
                 (A')
 Initial guess <Sx>= 0.0000 <Sy>= 0.0000 <Sz>= 0.5000 <S**2>= 0.7629 S= 0.5064
 Keep R1 and R2 ints in memory in symmetry-blocked form, NReq=617299900.
 Requested convergence on RMS density matrix=1.00D-08 within 128 cycles.
 Requested convergence on MAX density matrix=1.00D-06.
 Requested convergence on             energy=1.00D-06.
 No special actions if energy rises.
 SCF Done:  E(UM062X) =  -1610.30323101     A.U. after   16 cycles
            NFock= 16  Conv=0.68D-08     -V/T= 2.0023
 <Sx>= 0.0000 <Sy>= 0.0000 <Sz>= 0.5000 <S**2>= 0.7631 S= 0.5065
 <L.S>=  0.00000000000    
 Annihilation of the first spin contaminant:
 S**2 before annihilation     0.7631,   after     0.7501
 Calling FoFJK, ICntrl=      2127 FMM=F ISym2X=1 I1Cent= 0 IOpClX= 1 NMat=1 NMatS=1 NMatT=0.
 ***** Axes restored to original set *****
 -------------------------------------------------------------------
 Center     Atomic                   Forces (Hartrees/Bohr)
 Number     Number              X              Y              Z
 -------------------------------------------------------------------
      1        6          -0.000281913    0.000647499   -0.000000000
      2        6          -0.000704723   -0.002228768    0.000000000
      3        6           0.000348047    0.000766497   -0.000000000
      4        6           0.000005027    0.000023921   -0.000000000
      5        6          -0.000180362   -0.000362306    0.000000000
      6        6           0.000005111    0.000500336   -0.000000000
      7       17          -0.000023924   -0.000148560    0.000000000
      8       17           0.000147285   -0.000158407    0.000000000
      9       17           0.000301722    0.001310617   -0.000000000
     10        1           0.000243246   -0.000117512    0.000000000
     11        1           0.000140484   -0.000233316    0.000000000
 -------------------------------------------------------------------
 Cartesian Forces:  Max     0.002228768 RMS     0.000525458

 GradGradGradGradGradGradGradGradGradGradGradGradGradGradGradGradGradGrad
 Berny optimization.
 Using GEDIIS/GDIIS optimizer.
 FormGI is forming the generalized inverse of G from B-inverse, IUseBI=4.
 Internal  Forces:  Max     0.001314182 RMS     0.000276762
 Search for a local minimum.
 Step number   3 out of a maximum of   57
 All quantities printed in internal units (Hartrees-Bohrs-Radians)
 Mixed Optimization -- En-DIIS/RFO-DIIS
 Update second derivatives using D2CorX and points    1    2    3
 DE= -3.21D-04 DEPred=-2.89D-04 R= 1.11D+00
 TightC=F SS=  1.41D+00  RLast= 4.86D-02 DXNew= 6.9768D-01 1.4569D-01
 Trust test= 1.11D+00 RLast= 4.86D-02 DXMaxT set to 4.15D-01
 ITU=  1  1  0
 Use linear search instead of GDIIS.
     Eigenvalues ---    0.01852   0.01898   0.01932   0.01991   0.02002
     Eigenvalues ---    0.02019   0.02172   0.02366   0.15974   0.16069
     Eigenvalues ---    0.19579   0.22665   0.24846   0.25000   0.25001
     Eigenvalues ---    0.25119   0.31175   0.33839   0.34988   0.37032
     Eigenvalues ---    0.38403   0.40154   0.41949   0.43795   0.44172
     Eigenvalues ---    0.49787   0.51176
 RFO step:  Lambda=-7.41365000D-06 EMin= 1.85156265D-02
 Quartic linear search produced a step of  0.11519.
 Iteration  1 RMS(Cart)=  0.00112555 RMS(Int)=  0.00000170
 Iteration  2 RMS(Cart)=  0.00000192 RMS(Int)=  0.00000117
 Iteration  3 RMS(Cart)=  0.00000000 RMS(Int)=  0.00000117
 ClnCor:  largest displacement from symmetrization is 3.54D-10 for atom     7.
 Variable       Old X    -DE/DX   Delta X   Delta X   Delta X     New X
                                 (Linear)    (Quad)   (Total)
    R1        2.65100  -0.00028  -0.00129   0.00005  -0.00124   2.64977
    R2        2.64577   0.00008  -0.00062   0.00050  -0.00012   2.64565
    R3        3.25542  -0.00021   0.00217  -0.00191   0.00026   3.25568
    R4        2.58557   0.00001   0.00010  -0.00020  -0.00009   2.58548
    R5        3.26143   0.00131   0.00310   0.00180   0.00491   3.26634
    R6        2.58652   0.00026   0.00073  -0.00004   0.00069   2.58721
    R7        2.63332   0.00032  -0.00032   0.00094   0.00062   2.63393
    R8        2.04531   0.00027   0.00015   0.00053   0.00068   2.04599
    R9        2.62774   0.00041  -0.00007   0.00085   0.00078   2.62853
   R10        2.04504   0.00023   0.00002   0.00049   0.00051   2.04555
   R11        3.27382   0.00010   0.00202  -0.00086   0.00116   3.27498
    A1        2.07063  -0.00032  -0.00049  -0.00117  -0.00166   2.06897
    A2        2.09976   0.00025   0.00033   0.00092   0.00125   2.10101
    A3        2.11279   0.00007   0.00016   0.00026   0.00041   2.11321
    A4        2.05214   0.00053   0.00167   0.00109   0.00276   2.05490
    A5        2.12871   0.00022  -0.00032   0.00120   0.00087   2.12958
    A6        2.10234  -0.00075  -0.00134  -0.00229  -0.00363   2.09870
    A7        2.19244  -0.00023  -0.00195   0.00012  -0.00183   2.19061
    A8        2.03705  -0.00005   0.00076  -0.00047   0.00029   2.03734
    A9        2.13318   0.00003  -0.00003  -0.00000  -0.00003   2.13316
   A10        2.11295   0.00002  -0.00073   0.00047  -0.00027   2.11269
   A11        2.09708  -0.00012  -0.00024  -0.00012  -0.00036   2.09672
   A12        2.11034  -0.00007   0.00023  -0.00080  -0.00057   2.10977
   A13        2.07576   0.00019   0.00001   0.00092   0.00094   2.07670
   A14        2.11703   0.00018   0.00025   0.00055   0.00080   2.11783
   A15        2.09954   0.00007  -0.00007   0.00039   0.00032   2.09986
   A16        2.06661  -0.00025  -0.00017  -0.00095  -0.00112   2.06549
    D1        0.00000   0.00000   0.00000  -0.00000  -0.00000   0.00000
    D2        3.14159  -0.00000   0.00000  -0.00000   0.00000   3.14159
    D3        3.14159   0.00000   0.00000   0.00000   0.00000   3.14159
    D4        0.00000  -0.00000   0.00000   0.00000   0.00000   0.00000
    D5        0.00000   0.00000   0.00000  -0.00000   0.00000   0.00000
    D6        3.14159   0.00000   0.00000  -0.00000   0.00000   3.14159
    D7        3.14159  -0.00000   0.00000  -0.00000   0.00000   3.14159
    D8       -0.00000  -0.00000   0.00000  -0.00000   0.00000   0.00000
    D9       -0.00000   0.00000   0.00000   0.00000   0.00000   0.00000
   D10        3.14159   0.00000   0.00000   0.00000   0.00000   3.14159
   D11        0.00000   0.00000   0.00000   0.00000  -0.00000   0.00000
   D12        3.14159   0.00000   0.00000   0.00000   0.00000   3.14159
   D13       -0.00000  -0.00000   0.00000  -0.00000   0.00000   0.00000
   D14        3.14159   0.00000   0.00000   0.00000   0.00000   3.14159
   D15        3.14159  -0.00000   0.00000  -0.00000   0.00000   3.14159
   D16       -0.00000  -0.00000   0.00000  -0.00000   0.00000   0.00000
   D17       -0.00000  -0.00000   0.00000   0.00000   0.00000   0.00000
   D18        3.14159  -0.00000   0.00000   0.00000   0.00000   3.14159
[...]
      8       17           0.000349747   -0.000188798    0.000000000
      9       17           0.000017821    0.000237541   -0.000000000
     10        1           0.000023842   -0.000001923    0.000000000
     11        1           0.000047498   -0.000019645    0.000000000
 -------------------------------------------------------------------
 Cartesian Forces:  Max     0.000492253 RMS     0.000165779
 FormGI is forming the generalized inverse of G from B-inverse, IUseBI=4.

 GradGradGradGradGradGradGradGradGradGradGradGradGradGradGradGradGradGrad
 Berny optimization.
 Internal  Forces:  Max     0.000398363 RMS     0.000084840
 Search for a local minimum.
 Step number   1 out of a maximum of    2
 All quantities printed in internal units (Hartrees-Bohrs-Radians)
 Second derivative matrix not updated -- analytic derivatives used.
 ITU=  0
     Eigenvalues ---    0.01607   0.01749   0.01870   0.02572   0.02799
     Eigenvalues ---    0.03005   0.03448   0.03852   0.10639   0.11685
     Eigenvalues ---    0.15246   0.16812   0.17511   0.18186   0.21777
     Eigenvalues ---    0.22359   0.25704   0.27037   0.30079   0.34936
     Eigenvalues ---    0.36580   0.36873   0.44441   0.45837   0.48475
     Eigenvalues ---    0.50213   0.52640
 Angle between quadratic step and forces=  17.49 degrees.
 Linear search not attempted -- first point.
 Iteration  1 RMS(Cart)=  0.00032768 RMS(Int)=  0.00000010
 Iteration  2 RMS(Cart)=  0.00000014 RMS(Int)=  0.00000003
 ClnCor:  largest displacement from symmetrization is 8.46D-11 for atom    10.
 Variable       Old X    -DE/DX   Delta X   Delta X   Delta X     New X
                                 (Linear)    (Quad)   (Total)
    R1        2.64977  -0.00013   0.00000  -0.00041  -0.00041   2.64936
    R2        2.64565   0.00008   0.00000   0.00044   0.00044   2.64609
    R3        3.25568  -0.00040   0.00000  -0.00180  -0.00180   3.25388
    R4        2.58548  -0.00003   0.00000  -0.00013  -0.00013   2.58534
    R5        3.26634   0.00024   0.00000   0.00125   0.00125   3.26758
    R6        2.58721   0.00001   0.00000  -0.00001  -0.00001   2.58720
    R7        2.63393   0.00007   0.00000   0.00030   0.00030   2.63424
    R8        2.04599   0.00002   0.00000   0.00004   0.00004   2.04603
    R9        2.62853   0.00002   0.00000  -0.00007  -0.00007   2.62845
   R10        2.04555   0.00002   0.00000   0.00006   0.00006   2.04561
   R11        3.27498  -0.00016   0.00000  -0.00053  -0.00053   3.27445
    A1        2.06897  -0.00012   0.00000  -0.00098  -0.00098   2.06798
    A2        2.10101   0.00003   0.00000   0.00047   0.00047   2.10148
    A3        2.11321   0.00008   0.00000   0.00052   0.00052   2.11373
    A4        2.05490   0.00013   0.00000   0.00101   0.00101   2.05591
    A5        2.12958  -0.00002   0.00000  -0.00016  -0.00016   2.12942
    A6        2.09870  -0.00011   0.00000  -0.00085  -0.00085   2.09785
    A7        2.19061   0.00001   0.00000  -0.00016  -0.00016   2.19045
    A8        2.03734  -0.00008   0.00000  -0.00044  -0.00044   2.03690
    A9        2.13316   0.00004   0.00000   0.00034   0.00034   2.13350
   A10        2.11269   0.00003   0.00000   0.00010   0.00010   2.11279
   A11        2.09672   0.00001   0.00000   0.00024   0.00024   2.09696
   A12        2.10977  -0.00004   0.00000  -0.00042  -0.00042   2.10935
   A13        2.07670   0.00003   0.00000   0.00017   0.00017   2.07687
   A14        2.11783   0.00005   0.00000   0.00034   0.00034   2.11817
   A15        2.09986  -0.00003   0.00000  -0.00029  -0.00029   2.09957
   A16        2.06549  -0.00002   0.00000  -0.00005  -0.00005   2.06545
    D1       -0.00000  -0.00000   0.00000  -0.00000   0.00000   0.00000
    D2        3.14159  -0.00000   0.00000  -0.00000   0.00000   3.14159
    D3        3.14159   0.00000   0.00000  -0.00000   0.00000   3.14159
    D4        0.00000  -0.00000   0.00000  -0.00000  -0.00000   0.00000
    D5        0.00000   0.00000   0.00000   0.00000   0.00000   0.00000
    D6        3.14159   0.00000   0.00000  -0.00000   0.00000   3.14159
    D7        3.14159  -0.00000   0.00000   0.00000   0.00000   3.14159
    D8       -0.00000   0.00000   0.00000  -0.00000   0.00000   0.00000
    D9        0.00000   0.00000   0.00000  -0.00000   0.00000   0.00000
   D10        3.14159   0.00000   0.00000  -0.00000   0.00000   3.14159
   D11       -0.00000   0.00000   0.00000   0.00000   0.00000   0.00000
   D12        3.14159  -0.00000   0.00000   0.00000   0.00000   3.14159
   D13        0.00000  -0.00000   0.00000  -0.00000   0.00000   0.00000
   D14        3.14159  -0.00000   0.00000  -0.00000   0.00000   3.14159
   D15        3.14159   0.00000   0.00000  -0.00000   0.00000   3.14159
   D16       -0.00000  -0.00000   0.00000  -0.00000   0.00000   0.00000
   D17        0.00000   0.00000   0.00000   0.00000   0.00000   0.00000
   D18        3.14159  -0.00000   0.00000   0.00000   0.00000   3.14159
   D19        3.14159   0.00000   0.00000  -0.00000   0.00000   3.14159
   D20       -0.00000   0.00000   0.00000   0.00000   0.00000   0.00000
         Item               Value     Threshold  Converged?
 Maximum Force            0.000398     0.000450     YES
 RMS     Force            0.000085     0.000300     YES
 Maximum Displacement     0.001228     0.001800     YES
 RMS     Displacement     0.000328     0.001200     YES
 Predicted change in Energy=-8.579863D-07
 Optimization completed.
    -- Stationary point found.
                           ----------------------------
                           !   Optimized Parameters   !
                           ! (Angstroms and Degrees)  !
 --------------------------                            --------------------------
 ! Name  Definition              Value          Derivative Info.                !
 --------------------------------------------------------------------------------
 ! R1    R(1,2)                  1.4022         -DE/DX =   -0.0001              !
 ! R2    R(1,6)                  1.4            -DE/DX =    0.0001              !
 ! R3    R(1,8)                  1.7228         -DE/DX =   -0.0004              !
 ! R4    R(2,3)                  1.3682         -DE/DX =    0.0                 !
 ! R5    R(2,9)                  1.7285         -DE/DX =    0.0002              !
 ! R6    R(3,4)                  1.3691         -DE/DX =    0.0                 !
 ! R7    R(4,5)                  1.3938         -DE/DX =    0.0001              !
 ! R8    R(4,10)                 1.0827         -DE/DX =    0.0                 !
 ! R9    R(5,6)                  1.391          -DE/DX =    0.0                 !
 ! R10   R(5,11)                 1.0825         -DE/DX =    0.0                 !
 ! R11   R(6,7)                  1.733          -DE/DX =   -0.0002              !
 ! A1    A(2,1,6)              118.543          -DE/DX =   -0.0001              !
 ! A2    A(2,1,8)              120.379          -DE/DX =    0.0                 !
 ! A3    A(6,1,8)              121.078          -DE/DX =    0.0001              !
 ! A4    A(1,2,3)              117.7371         -DE/DX =    0.0001              !
 ! A5    A(1,2,9)              122.0161         -DE/DX =    0.0                 !
 ! A6    A(3,2,9)              120.2468         -DE/DX =   -0.0001              !
 ! A7    A(2,3,4)              125.5129         -DE/DX =    0.0                 !
 ! A8    A(3,4,5)              116.7311         -DE/DX =   -0.0001              !
 ! A9    A(3,4,10)             122.2209         -DE/DX =    0.0                 !
 ! A10   A(5,4,10)             121.0481         -DE/DX =    0.0                 !
 ! A11   A(4,5,6)              120.133          -DE/DX =    0.0                 !
 ! A12   A(4,5,11)             120.8808         -DE/DX =    0.0                 !
 ! A13   A(6,5,11)             118.9861         -DE/DX =    0.0                 !
 ! A14   A(1,6,5)              121.3428         -DE/DX =    0.0                 !
 ! A15   A(1,6,7)              120.3131         -DE/DX =    0.0                 !
 ! A16   A(5,6,7)              118.3441         -DE/DX =    0.0                 !
 ! D1    D(6,1,2,3)              0.0            -DE/DX =    0.0                 !
 ! D2    D(6,1,2,9)            180.0            -DE/DX =    0.0                 !
 ! D3    D(8,1,2,3)            180.0            -DE/DX =    0.0                 !
 ! D4    D(8,1,2,9)              0.0            -DE/DX =    0.0                 !
 ! D5    D(2,1,6,5)              0.0            -DE/DX =    0.0                 !
 ! D6    D(2,1,6,7)            180.0            -DE/DX =    0.0                 !
 ! D7    D(8,1,6,5)            180.0            -DE/DX =    0.0                 !
 ! D8    D(8,1,6,7)              0.0            -DE/DX =    0.0                 !
 ! D9    D(1,2,3,4)              0.0            -DE/DX =    0.0                 !
 ! D10   D(9,2,3,4)            180.0            -DE/DX =    0.0                 !
 ! D11   D(2,3,4,5)              0.0            -DE/DX =    0.0                 !
 ! D12   D(2,3,4,10)           180.0            -DE/DX =    0.0                 !
 ! D13   D(3,4,5,6)              0.0            -DE/DX =    0.0                 !
 ! D14   D(3,4,5,11)           180.0            -DE/DX =    0.0                 !
 ! D15   D(10,4,5,6)           180.0            -DE/DX =    0.0                 !
 ! D16   D(10,4,5,11)            0.0            -DE/DX =    0.0                 !
 ! D17   D(4,5,6,1)              0.0            -DE/DX =    0.0                 !
 ! D18   D(4,5,6,7)            180.0            -DE/DX =    0.0                 !
 ! D19   D(11,5,6,1)           180.0            -DE/DX =    0.0                 !
 ! D20   D(11,5,6,7)             0.0            -DE/DX =    0.0                 !
 --------------------------------------------------------------------------------
 GradGradGradGradGradGradGradGradGradGradGradGradGradGradGradGradGradGrad


 ----------------------------------------------------------------------

 Electric dipole moment (input orientation):
 (Debye = 10**-18 statcoulomb cm , SI units = C m)
                  (au)            (Debye)         (10**-30 SI)
   Tot        0.912977D+00      0.232055D+01      0.774054D+01
   x          0.640501D+00      0.162799D+01      0.543039D+01
   y         -0.650604D+00     -0.165367D+01     -0.551605D+01
   z          0.000000D+00      0.000000D+00      0.000000D+00

 Dipole polarizability, Alpha (input orientation).
 (esu units = cm**3 , SI units = C**2 m**2 J**-1)
 Alpha(0;0):
               (au)            (10**-24 esu)      (10**-40 SI)
   iso        0.100258D+03      0.148568D+02      0.165304D+02
   aniso      0.665455D+02      0.986102D+01      0.109719D+02
   xx         0.118633D+03      0.175796D+02      0.195599D+02
   yx         0.123929D+01      0.183644D+00      0.204332D+00
   yy         0.126019D+03      0.186740D+02      0.207777D+02
   zx         0.000000D+00      0.000000D+00      0.000000D+00
   zy         0.000000D+00      0.000000D+00      0.000000D+00
   zz         0.561233D+02      0.831662D+01      0.925348D+01

 ----------------------------------------------------------------------

 Dipole orientation:
     6         -2.92261901         -2.87723363         -4.36006391
     6         -1.08704205         -1.07016136         -3.73844880
     6         -0.63602353         -0.62614672         -1.23163423
     6         -1.82893441         -1.80053287          0.74103443
     6         -3.65339974         -3.59666606          0.12228973
     6         -4.18685875         -4.12184098         -2.39738541
    17         -6.47137121         -6.37087723         -3.06696626
    17         -3.59363161         -3.53782607         -7.47660065
    17          0.57553654          0.56659902         -6.02444856
     1         -1.39143342         -1.36982583          2.69274479
     1         -4.67452079         -4.60193011          1.58209951

 Electric dipole moment (dipole orientation):
 (Debye = 10**-18 statcoulomb cm , SI units = C m)
                  (au)            (Debye)         (10**-30 SI)
   Tot        0.912977D+00      0.232055D+01      0.774054D+01
   x          0.000000D+00      0.000000D+00      0.000000D+00
   y          0.000000D+00      0.000000D+00      0.000000D+00
   z          0.912977D+00      0.232055D+01      0.774054D+01

 Dipole polarizability, Alpha (dipole orientation).
 (esu units = cm**3 , SI units = C**2 m**2 J**-1)
 Alpha(0;0):
               (au)            (10**-24 esu)      (10**-40 SI)
   iso        0.100258D+03      0.148568D+02      0.165304D+02
   aniso      0.665455D+02      0.986102D+01      0.109719D+02
   xx         0.903425D+02      0.133874D+02      0.148955D+02
   yx         0.336878D+02      0.499202D+01      0.555437D+01
   yy         0.892880D+02      0.132311D+02      0.147216D+02
   zx        -0.264508D+01     -0.391961D+00     -0.436115D+00
   zy        -0.260401D+01     -0.385874D+00     -0.429343D+00
   zz         0.121145D+03      0.179518D+02      0.199740D+02

 ----------------------------------------------------------------------
 1\1\GINC-SH02-01N45\Freq\UM062X\6-311++G(d,p)\C6H2Cl3(2)\JLAPIER\10-De
 c-2025\0\\#N Geom=AllCheck Guess=TCheck SCRF=Check GenChk UM062X/6-311
 ++G(d,p) Freq\\Neutral Radical (removed 4) 123_\\0,2\C,-3.165236754,0.
 1216194907,0.\C,-1.9631195505,0.8434690611,0.\C,-0.79380762,0.13310835
 14,0.\C,-0.6927248394,-1.2322460413,0.\C,-1.8878963903,-1.9493893351,0
 .\C,-3.1056083817,-1.2771270569,0.\Cl,-4.5630990805,-2.2147659445,0.\C
 l,-4.6773210535,0.9472992188,0.\Cl,-1.9319875926,2.5716589379,0.\H,0.2
 633540811,-1.7403182902,0.\H,-1.8863028186,-3.031848392,0.\\Version=ES
 64L-G16RevB.01\State=2-A'\HF=-1610.3032385\S2=0.763074\S2-1=0.\S2A=0.7
 50077\RMSD=5.285e-09\RMSF=1.658e-04\ZeroPoint=0.0596786\Thermal=0.0674
 342\Dipole=0.6405006,-0.6506038,0.\DipoleDeriv=0.6706827,-0.5253064,0.
 ,-0.5149161,0.000873,0.,0.,0.,0.002337,-0.095055,0.0418831,0.,0.174127
 7,1.0439726,0.,0.,0.,0.0283391,-0.1077133,0.0585445,0.,-0.1059398,-0.1
 756683,0.,0.,0.,-0.0666812,-0.0280917,-0.0329944,0.,0.0040644,0.017521
 1,0.,0.,0.,-0.0561064,-0.0919328,-0.1204637,0.,-0.0368427,-0.0827141,0
 .,0.,0.,-0.1342717,0.5719472,0.6499915,0.,0.5506691,0.2862292,0.,0.,0.
 ,-0.0091386,-0.4643931,-0.3467664,0.,-0.3160224,-0.2832572,0.,0.,0.,-0
 .0340926,-0.5332815,0.2943818,0.,0.2860674,-0.1484941,0.,0.,0.,-0.0184
 594,-0.0268393,-0.0277432,0.,-0.0744085,-0.7420002,0.,0.,0.,-0.0143591
 ,0.0335303,0.0267309,0.,0.0332391,0.0647647,0.,0.,0.,0.1605542,0.07114
 65,-0.0182578,0.,-0.0000383,0.0187731,0.,0.,0.,0.1418787\Polar=118.633
 0431,1.2392938,126.0187241,0.,0.,56.1233042\Quadrupole=1.4270981,1.218
 7415,-2.6458396,-3.6904831,0.,0.\PG=CS [SG(C6H2Cl3)]\NImag=0\\0.561612
 66,0.02189945,0.59880346,0.,0.,0.12066991,-0.24185124,-0.04562477,0.,0
 .60774518,-0.13062827,-0.15028203,0.,-0.03822577,0.54408532,0.,0.,-0.0
 6835473,0.,0.,0.12221054,-0.06243711,-0.03395037,0.,-0.28761596,0.1296
 0141,0.,0.43121419,0.03788058,0.07197361,0.,0.10324873,-0.15587467,0.,
 -0.14965836,0.60660195,0.,0.,0.01713441,0.,0.,-0.05890390,0.,0.,0.0752
 2931,-0.01476259,-0.03652396,0.,0.03506173,0.03486838,0.,-0.09963240,0
 .04666063,0.,0.69997543,-0.03463725,-0.06379420,0.,0.08150580,-0.02488
 103,0.,0.00672603,-0.36319532,0.,-0.06650561,0.67816616,0.,0.,-0.00294
 750,0.,0.,0.00766216,0.,0.,-0.05333218,0.,0.,0.12661061,0.03488170,0.0
 8987005,0.,-0.08313138,0.00108083,0.,0.04516399,-0.09150739,0.,-0.2782
 4126,-0.04724532,0.,0.65825683,0.02486962,-0.02282223,0.,0.00140472,0.
 00408460,0.,-0.02336800,-0.04273957,0.,-0.13693356,-0.17488914,0.,0.00
 841184,0.75205484,0.,0.,0.00836077,0.,0.,-0.00429389,0.,0.,0.01604294,
 0.,0.,-0.06239703,0.,0.,0.12904653,-0.10033171,-0.02936127,0.,0.043251
 84,-0.02213022,0.,-0.02754928,0.03997171,0.,-0.05922052,-0.03964298,0.
 ,-0.26700918,0.13693662,0.,0.57705953,0.04793364,-0.30174232,0.,-0.092
 15607,-0.02485742,0.,0.03809847,-0.06495415,0.,0.02712681,0.07209584,0
 .,0.05733926,-0.17564140,0.,-0.04711083,0.60186357,0.,0.,-0.06591418,0
 .,0.,0.01128439,0.,0.,-0.00732264,0.,0.,0.00827270,0.,0.,-0.06476459,0
 .,0.,0.12514100,-0.01507622,-0.00835654,0.,0.00046391,0.00105701,0.,-0
 .00040296,-0.00239795,0.,-0.00058255,0.00614703,0.,-0.04152848,-0.0255
 0163,0.,-0.14329635,-0.06829289,0.,0.19810344,-0.03270841,-0.02184930,
 0.,0.00402942,-0.00240974,0.,-0.00109371,-0.00019573,0.,0.00167185,0.0
 0027644,0.,-0.00008595,0.00452703,0.,-0.06445549,-0.08015026,0.,0.0960
 6755,0.10809766,0.,0.,0.00346639,0.,0.,0.00383318,0.,0.,-0.00084737,0.
 ,0.,0.00451165,0.,0.,0.00455553,0.,0.,-0.02298430,0.,0.,0.01139164,-0.
 15752657,0.06591469,0.,-0.03972074,0.02076741,0.,-0.00293672,-0.005168
 03,0.,-0.00080147,0.00127609,0.,0.00333179,0.00034051,0.,-0.01927631,0
 .01123104,0.,0.00328902,-0.00335387,0.,0.21779308,0.06497019,-0.074877
 83,0.,-0.00184483,0.00134749,0.,-0.00153607,-0.00011789,0.,0.00146206,
 -0.00012526,0.,-0.00408682,-0.00384295,0.,0.03354361,-0.01799568,0.,0.
 00397235,-0.00788759,0.,-0.09023294,0.10302360,0.,0.,-0.02304338,0.,0.
 ,0.00438625,0.,0.,0.00401248,0.,0.,-0.00092118,0.,0.,0.00405902,0.,0.,
 0.00323686,0.,0.,-0.00113518,0.,0.,0.01087913,-0.00086137,-0.02435354,
 0.,-0.03397401,0.00421591,0.,0.00418577,0.02245025,0.,-0.00364219,0.00
 084599,0.,0.00089130,-0.00040302,0.,-0.00350193,0.00112318,0.,-0.00006
 304,-0.00117371,0.,-0.00370876,-0.00773166,0.,0.04030648,-0.00049162,-
 0.03457077,0.,-0.01364926,-0.18759261,0.,0.01295775,-0.03904347,0.,0.0
 0227146,0.00299428,0.,-0.00156528,-0.00269069,0.,-0.00167766,0.0024905
 0,0.,-0.00088935,-0.00139696,0.,-0.00088853,0.00054863,0.,0.00440371,0
 .25988617,0.,0.,0.00567112,0.,0.,-0.02260156,0.,0.,0.00223255,0.,0.,0.
 00348857,0.,0.,-0.00014745,0.,0.,0.00345393,0.,0.,-0.00001488,0.,0.,-0
 .00133013,0.,0.,0.00970977,-0.00011969,-0.00064309,0.,0.00108064,-0.00
 146349,0.,0.00328063,0.00285328,0.,-0.28138721,0.11800326,0.,-0.017582
 78,0.01441888,0.,-0.00178703,-0.00293762,0.,-0.00112776,0.00005511,0.,
 0.00005834,-0.00000579,0.,0.00022126,-0.00031423,0.,0.29631350,-0.0010
 6931,-0.00115580,0.,0.00125286,-0.00448006,0.,0.02497768,-0.01194897,0
 .,0.12348491,-0.11762276,0.,-0.01598088,0.01172218,0.,-0.00308656,-0.0
 0036231,0.,-0.00090491,-0.00000941,0.,0.00002732,0.00009968,0.,0.00059
 506,-0.00068479,0.,-0.12994732,0.12394097,0.,0.,-0.00057507,0.,0.,0.00
 590199,0.,0.,-0.00073367,0.,0.,-0.03555062,0.,0.,0.00555311,0.,0.,0.00
 691709,0.,0.,-0.00008920,0.,0.,-0.00030776,0.,0.,-0.00032924,0.,0.,0.0
 2338362,-0.00352785,0.00112936,0.,-0.00130997,0.00085679,0.,-0.0032701
 7,-0.00433343,0.,0.00323303,-0.02647304,0.,-0.05503253,-0.00017597,0.,
 0.00166095,0.02764501,0.,0.00022100,0.00104719,0.,-0.00050166,0.001489
 92,0.,0.00014648,-0.00015698,0.,0.00105009,0.00065115,0.,0.05733063,0.
 00198138,0.00031740,0.,0.00005918,0.00086014,0.,-0.00275484,-0.0005057
 9,0.,0.00241704,-0.00902501,0.,0.00376967,-0.34976267,0.,-0.00298692,-
 0.01074638,0.,-0.00090066,0.00099786,0.,0.00008631,-0.00017221,0.,0.00
 002782,0.00005971,0.,-0.00001899,0.00050126,0.,-0.00167999,0.36747570,
 0.,0.,0.00553225,0.,0.,-0.00112443,0.,0.,0.00648807,0.,0.,0.00460280,0
 .,0.,-0.03601494,0.,0.,0.00267975,0.,0.,-0.00268745,0.,0.,0.00016390,0
 .,0.,-0.00013268,0.,0.,-0.00417026,0.,0.,0.02466302\\0.00041918,-0.000
 41691,0.,0.00011119,0.00049225,0.,0.00002972,-0.00010431,0.,-0.0001265
 9,-0.00000342,0.,0.00012297,0.00000749,0.,0.00002150,0.00012768,0.,-0.
 00013906,-0.00007562,0.,-0.00034975,0.00018880,0.,-0.00001782,-0.00023
 754,0.,-0.00002384,0.00000192,0.,-0.00004750,0.00001964,0.\\\@


 BETTER TO HUNT IN FIELDS, FOR HEALTH UNBOUGHT
 THAN FEE THE DOCTOR FOR A NAUSEOUS DRAUGHT.
 THE WISE, FOR CURE, ON EXERCISE DEPEND;
 GOD NEVER MADE HIS WORK FOR MAN TO MEND.
     -- JOHN DRYDEN (1631-1700)
 Job cpu time:       0 days  0 hours 43 minutes  8.4 seconds.
 Elapsed time:       0 days  0 hours 10 minutes 48.5 seconds.
 File lengths (MBytes):  RWF=    172 Int=      0 D2E=      0 Chk=     34 Scr=      1
 Normal termination of Gaussian 16 at Wed Dec 10 11:11:18 2025.
