 Entering Gaussian System, Link 0=g16
 Initial command:
 /share/software/user/restricted/gaussian/g16.B01/l1.exe "/home/users/jlapier/Chloroaromatics/Gau-9656.inp" -scrdir="/home/users/jlapier/Chloroaromatics/"
 Entering Link 1 = /share/software/user/restricted/gaussian/g16.B01/l1.exe PID=      9658.
  
 Copyright (c) 1988-2017, Gaussian, Inc.  All Rights Reserved.
  
 This is part of the Gaussian(R) 16 program.  It is based on
 the Gaussian(R) 09 system (copyright 2009, Gaussian, Inc.),
 the Gaussian(R) 03 system (copyright 2003, Gaussian, Inc.),
 the Gaussian(R) 98 system (copyright 1998, Gaussian, Inc.),
 the Gaussian(R) 94 system (copyright 1995, Gaussian, Inc.),
 the Gaussian 92(TM) system (copyright 1992, Gaussian, Inc.),
 the Gaussian 90(TM) system (copyright 1990, Gaussian, Inc.),
 the Gaussian 88(TM) system (copyright 1988, Gaussian, Inc.),
 the Gaussian 86(TM) system (copyright 1986, Carnegie Mellon
 University), and the Gaussian 82(TM) system (copyright 1983,
 Carnegie Mellon University). Gaussian is a federally registered
 trademark of Gaussian, Inc.
  
 This software contains proprietary and confidential information,
 including trade secrets, belonging to Gaussian, Inc.
  
 This software is provided under written license and may be
 used, copied, transmitted, or stored only in accord with that
 written license.
  
 The following legend is applicable only to US Government
 contracts under FAR:
  
                    RESTRICTED RIGHTS LEGEND
  
 Use, reproduction and disclosure by the US Government is
 subject to restrictions as set forth in subparagraphs (a)
 and (c) of the Commercial Computer Software - Restricted
 Rights clause in FAR 52.227-19.
  
 Gaussian, Inc.
 340 Quinnipiac St., Bldg. 40, Wallingford CT 06492
  
  
 ---------------------------------------------------------------
 Warning -- This program may not be used in any manner that
 competes with the business of Gaussian, Inc. or will provide
 assistance to any competitor of Gaussian, Inc.  The licensee
 of this program is prohibited from giving any competitor of
 Gaussian, Inc. access to this program.  By using this program,
 the user acknowledges that Gaussian, Inc. is engaged in the
 business of creating and licensing software in the field of
 computational chemistry and represents and warrants to the
 licensee that it is not a competitor of Gaussian, Inc. and that
 it will not use this program in any manner prohibited above.
 ---------------------------------------------------------------
  

 Cite this work as:
 Gaussian 16, Revision B.01,
 M. J. Frisch, G. W. Trucks, H. B. Schlegel, G. E. Scuseria, 
 M. A. Robb, J. R. Cheeseman, G. Scalmani, V. Barone, 
 G. A. Petersson, H. Nakatsuji, X. Li, M. Caricato, A. V. Marenich, 
 J. Bloino, B. G. Janesko, R. Gomperts, B. Mennucci, H. P. Hratchian, 
 J. V. Ortiz, A. F. Izmaylov, J. L. Sonnenberg, D. Williams-Young, 
 F. Ding, F. Lipparini, F. Egidi, J. Goings, B. Peng, A. Petrone, 
 T. Henderson, D. Ranasinghe, V. G. Zakrzewski, J. Gao, N. Rega, 
 G. Zheng, W. Liang, M. Hada, M. Ehara, K. Toyota, R. Fukuda, 
 J. Hasegawa, M. Ishida, T. Nakajima, Y. Honda, O. Kitao, H. Nakai, 
 T. Vreven, K. Throssell, J. A. Montgomery, Jr., J. E. Peralta, 
 F. Ogliaro, M. J. Bearpark, J. J. Heyd, E. N. Brothers, K. N. Kudin, 
 V. N. Staroverov, T. A. Keith, R. Kobayashi, J. Normand, 
 K. Raghavachari, A. P. Rendell, J. C. Burant, S. S. Iyengar, 
 J. Tomasi, M. Cossi, J. M. Millam, M. Klene, C. Adamo, R. Cammi, 
 J. W. Ochterski, R. L. Martin, K. Morokuma, O. Farkas, 
 J. B. Foresman, and D. J. Fox, Gaussian, Inc., Wallingford CT, 2016.
 
 ******************************************
 Gaussian 16:  ES64L-G16RevB.01 20-Dec-2017
                10-Dec-2025 
 ******************************************
 %mem=8GB
 %nprocshare=4
 Will use up to    4 processors via shared memory.
 %oldchk=geometry_chks/123456-1234_6-ClBzNeutralRadical.chk
 %chk=frequency_chks/123456-1234_6-ClBzNeutralRadical_Freq.chk
 Copying data from "geometry_chks/123456-1234_6-ClBzNeutralRadical.chk" to current chk file "frequency_chks/123456-1234_6-ClBzNeutralRadical_Freq.chk"
 IOpt=  2 FromEx=T IUOpen= 4 IOptOp= 5 NList=   0 IFRang= 0 IUIn= 4 IUOut= 2.
 -------------------------------------------------------
 # opt freq 6-311++g(d,p) guess=read geom=allcheck m062x
 -------------------------------------------------------
 1/18=20,19=15,26=3,29=7,38=1/1,3;
 2/9=110,12=2,40=1/2;
 3/5=4,6=6,7=1111,11=2,14=-4,25=1,30=1,71=1,74=-55,116=-2/1,2,3;
 4/5=1/1;
 5/5=2,38=6/2;
 6/7=2,8=2,9=2,10=2,28=1/1;
 7//1,2,3,16;
 1/18=20,19=15,26=3/3(2);
 2/9=110/2;
 99//99;
 2/9=110/2;
 3/5=4,6=6,7=1111,11=2,14=-2,25=1,30=1,71=1,74=-55/1,2,3;
 4/5=5,16=3,69=1/1;
 5/5=2,38=5/2;
 7//1,2,3,16;
 1/18=20,19=15,26=3/3(-5);
 2/9=110/2;
 6/7=2,8=2,9=2,10=2,19=2,28=1/1;
 99/9=1/99;
 Structure from the checkpoint file:  "frequency_chks/123456-1234_6-ClBzNeutralRadical_Freq.chk"
 ----------------------------------
 Neutral Radical (removed 5) 1234_6
 ----------------------------------
 Charge =  0 Multiplicity = 2
 Redundant internal coordinates found in file.  (old form).
 C,0,-3.2135661389,0.2017505179,0.
 C,0,-2.0178635249,0.960805212,0.
 C,0,-0.7658702565,0.2891870232,0.
 C,0,-0.8424894252,-1.0816981679,0.
 C,0,-1.9483938368,-1.895437835,0.
 C,0,-3.1952983282,-1.2144186886,0.
 Cl,0,-4.6305793638,-2.0952567515,0.
 Cl,0,-4.6999807732,1.0063372178,0.
 Cl,0,-2.0651653781,2.6441560365,0.
 Cl,0,0.7056981101,1.0936830946,0.
 Cl,0,-1.8173310844,-3.567427659,0.
 Recover connectivity data from disk.

 GradGradGradGradGradGradGradGradGradGradGradGradGradGradGradGradGradGrad
 Berny optimization.
 Initialization pass.
                           ----------------------------
                           !    Initial Parameters    !
                           ! (Angstroms and Degrees)  !
 --------------------------                            --------------------------
 ! Name  Definition              Value          Derivative Info.                !
 --------------------------------------------------------------------------------
 ! R1    R(1,2)                  1.4163         estimate D2E/DX2                !
 ! R2    R(1,6)                  1.4163         estimate D2E/DX2                !
 ! R3    R(1,8)                  1.6902         estimate D2E/DX2                !
 ! R4    R(2,3)                  1.4208         estimate D2E/DX2                !
 ! R5    R(2,9)                  1.684          estimate D2E/DX2                !
 ! R6    R(3,4)                  1.373          estimate D2E/DX2                !
 ! R7    R(3,10)                 1.6771         estimate D2E/DX2                !
 ! R8    R(4,5)                  1.373          estimate D2E/DX2                !
 ! R9    R(5,6)                  1.4208         estimate D2E/DX2                !
 ! R10   R(5,11)                 1.6771         estimate D2E/DX2                !
 ! R11   R(6,7)                  1.684          estimate D2E/DX2                !
 ! A1    A(2,1,6)              121.6691         estimate D2E/DX2                !
 ! A2    A(2,1,8)              119.1654         estimate D2E/DX2                !
 ! A3    A(6,1,8)              119.1654         estimate D2E/DX2                !
 ! A4    A(1,2,3)              119.381          estimate D2E/DX2                !
 ! A5    A(1,2,9)              120.7986         estimate D2E/DX2                !
 ! A6    A(3,2,9)              119.8204         estimate D2E/DX2                !
 ! A7    A(2,3,4)              115.0119         estimate D2E/DX2                !
 ! A8    A(2,3,10)             123.124          estimate D2E/DX2                !
 ! A9    A(4,3,10)             121.8641         estimate D2E/DX2                !
 ! A10   A(3,4,5)              129.5451         estimate D2E/DX2                !
 ! A11   A(4,5,6)              115.0119         estimate D2E/DX2                !
 ! A12   A(4,5,11)             121.864          estimate D2E/DX2                !
 ! A13   A(6,5,11)             123.124          estimate D2E/DX2                !
 ! A14   A(1,6,5)              119.381          estimate D2E/DX2                !
 ! A15   A(1,6,7)              120.7986         estimate D2E/DX2                !
 ! A16   A(5,6,7)              119.8204         estimate D2E/DX2                !
 ! D1    D(6,1,2,3)              0.0            estimate D2E/DX2                !
 ! D2    D(6,1,2,9)            180.0            estimate D2E/DX2                !
 ! D3    D(8,1,2,3)            180.0            estimate D2E/DX2                !
 ! D4    D(8,1,2,9)              0.0            estimate D2E/DX2                !
 ! D5    D(2,1,6,5)              0.0            estimate D2E/DX2                !
 ! D6    D(2,1,6,7)            180.0            estimate D2E/DX2                !
 ! D7    D(8,1,6,5)            180.0            estimate D2E/DX2                !
 ! D8    D(8,1,6,7)              0.0            estimate D2E/DX2                !
 ! D9    D(1,2,3,4)              0.0            estimate D2E/DX2                !
 ! D10   D(1,2,3,10)           180.0            estimate D2E/DX2                !
 ! D11   D(9,2,3,4)            180.0            estimate D2E/DX2                !
 ! D12   D(9,2,3,10)             0.0            estimate D2E/DX2                !
 ! D13   D(2,3,4,5)              0.0            estimate D2E/DX2                !
 ! D14   D(10,3,4,5)           180.0            estimate D2E/DX2                !
 ! D15   D(3,4,5,6)              0.0            estimate D2E/DX2                !
 ! D16   D(3,4,5,11)           180.0            estimate D2E/DX2                !
 ! D17   D(4,5,6,1)              0.0            estimate D2E/DX2                !
 ! D18   D(4,5,6,7)            180.0            estimate D2E/DX2                !
 ! D19   D(11,5,6,1)           180.0            estimate D2E/DX2                !
 ! D20   D(11,5,6,7)             0.0            estimate D2E/DX2                !
 --------------------------------------------------------------------------------
 Trust Radius=3.00D-01 FncErr=1.00D-07 GrdErr=1.00D-06 EigMax=2.50D+02 EigMin=1.00D-04
 Number of steps in this run=     57 maximum allowed number of steps=    100.
 GradGradGradGradGradGradGradGradGradGradGradGradGradGradGradGradGradGrad

                          Input orientation:                          
 ---------------------------------------------------------------------
 Center     Atomic      Atomic             Coordinates (Angstroms)
 Number     Number       Type             X           Y           Z
 ---------------------------------------------------------------------
      1          6           0       -3.213566    0.201751    0.000000
      2          6           0       -2.017864    0.960805   -0.000000
      3          6           0       -0.765870    0.289187   -0.000000
      4          6           0       -0.842489   -1.081698    0.000000
      5          6           0       -1.948394   -1.895438    0.000000
      6          6           0       -3.195298   -1.214419    0.000000
      7         17           0       -4.630579   -2.095257    0.000000
      8         17           0       -4.699981    1.006337    0.000000
      9         17           0       -2.065165    2.644156   -0.000000
     10         17           0        0.705698    1.093683   -0.000000
     11         17           0       -1.817331   -3.567428    0.000000
 ---------------------------------------------------------------------
                    Distance matrix (angstroms):
                    1          2          3          4          5
     1  C    0.000000
     2  C    1.416287   0.000000
     3  C    2.449257   1.420760   0.000000
     4  C    2.696154   2.356549   1.373025   0.000000
     5  C    2.449257   2.857088   2.484139   1.373025   0.000000
     6  C    1.416287   2.473449   2.857088   2.356549   1.420760
     7  Cl   2.698920   4.020671   4.541096   3.921342   2.689618
     8  Cl   1.690204   2.682504   3.998941   4.386357   3.998941
     9  Cl   2.698920   1.684015   2.689618   3.921342   4.541095
    10  Cl   4.019475   2.726801   1.677119   2.670050   3.997380
    11  Cl   4.019475   4.532671   3.997380   2.670050   1.677119
                    6          7          8          9         10
     6  C    0.000000
     7  Cl   1.684015   0.000000
     8  Cl   2.682504   3.102370   0.000000
     9  Cl   4.020672   5.389191   3.102370   0.000000
    10  Cl   4.532671   6.216526   5.406385   3.175162   0.000000
    11  Cl   2.726801   3.175162   5.406385   6.216526   5.300154
                   11
    11  Cl   0.000000
 Stoichiometry    C6Cl5(2)
 Framework group  CS[SG(C6Cl5)]
 Deg. of freedom    19
 Full point group                 CS      NOp   2
 Largest Abelian subgroup         CS      NOp   2
 Largest concise Abelian subgroup C1      NOp   1
                         Standard orientation:                         
 ---------------------------------------------------------------------
 Center     Atomic      Atomic             Coordinates (Angstroms)
 Number     Number       Type             X           Y           Z
 ---------------------------------------------------------------------
      1          6           0       -0.000000    0.980308   -0.000000
      2          6           0        1.236725    0.290105    0.000000
      3          6           0        1.242070   -1.130645    0.000000
      4          6           0       -0.000000   -1.715846    0.000000
      5          6           0       -1.242070   -1.130645   -0.000000
      6          6           0       -1.236725    0.290105   -0.000000
      7         17           0       -2.694596    1.133028   -0.000000
      8         17           0       -0.000000    2.670512   -0.000000
      9         17           0        2.694596    1.133028    0.000000
     10         17           0        2.650077   -2.041822    0.000000
     11         17           0       -2.650077   -2.041822   -0.000000
 ---------------------------------------------------------------------
 Rotational constants (GHZ):           0.7115010           0.4711252           0.2834421
 Standard basis: 6-311++G(d,p) (5D, 7F)
 There are   217 symmetry adapted cartesian basis functions of A'  symmetry.
 There are    76 symmetry adapted cartesian basis functions of A"  symmetry.
 There are   206 symmetry adapted basis functions of A'  symmetry.
 There are    76 symmetry adapted basis functions of A"  symmetry.
   282 basis functions,   481 primitive gaussians,   293 cartesian basis functions
    61 alpha electrons       60 beta electrons
       nuclear repulsion energy      1062.8292740219 Hartrees.
 NAtoms=   11 NActive=   11 NUniq=   11 SFac= 1.00D+00 NAtFMM=   60 NAOKFM=F Big=F
 Integral buffers will be    131072 words long.
 Raffenetti 2 integral format.
 Two-electron integral symmetry is turned on.
 One-electron integrals computed using PRISM.
 NBasis=   282 RedAO= T EigKep=  2.43D-06  NBF=   206    76
 NBsUse=   280 1.00D-06 EigRej=  4.48D-07 NBFU=   204    76
 Initial guess from the checkpoint file:  "frequency_chks/123456-1234_6-ClBzNeutralRadical_Freq.chk"
 B after Tr=    -0.000000   -0.000000    0.000000
         Rot=    1.000000   -0.000000    0.000000    0.000000 Ang=   0.00 deg.
 Initial guess orbital symmetries:
 Alpha Orbitals:
       Occupied  (A') (A') (A') (A') (A') (A') (A') (A') (A') (A')
                 (A') (A') (A') (A') (A") (A') (A') (A") (A") (A")
                 (A') (A") (A') (A') (A') (A') (A") (A') (A") (A")
                 (A") (A") (A') (A') (A') (A') (A') (A") (A') (A')
                 (A') (A') (A') (A') (A') (A') (A') (A') (A') (A')
                 (A') (A') (A') (A') (A') (A') (A') (A') (A') (A')
                 (A')
       Virtual   (A') (A') (A') (A') (A') (A') (A') (A') (A') (A')
                 (A') (A') (A') (A') (A') (A') (A') (A') (A') (A')
                 (A') (A') (A') (A') (A') (A') (A') (A') (A') (A')
                 (A') (A') (A') (A') (A') (A') (A') (A') (A') (A')
                 (A') (A') (A') (A') (A') (A') (A') (A') (A') (A')
                 (A') (A') (A') (A') (A') (A') (A') (A') (A') (A')
                 (A') (A') (A') (A') (A') (A') (A') (A') (A') (A')
                 (A') (A') (A') (A') (A') (A') (A') (A') (A') (A')
                 (A') (A') (A') (A') (A') (A') (A') (A') (A') (A')
                 (A') (A') (A') (A') (A') (A') (A') (A') (A') (A')
                 (A') (A') (A') (A') (A') (A') (A') (A') (A') (A')
                 (A') (A') (A') (A') (A') (A') (A') (A') (A') (A')
                 (A') (A') (A') (A') (A') (A') (A') (A') (A') (A')
                 (A') (A') (A') (A') (A') (A') (A') (A') (A') (A')
                 (A') (A') (A') (A') (A') (A') (A') (A') (A') (A')
                 (A') (A') (A') (A') (A") (A") (A") (A") (A") (A")
                 (A") (A") (A") (A") (A") (A") (A") (A") (A") (A")
                 (A") (A") (A") (A") (A") (A") (A") (A") (A") (A")
                 (A") (A") (A") (A") (A") (A") (A") (A") (A") (A")
                 (A") (A") (A") (A") (A") (A") (A") (A") (A") (A")
                 (A") (A") (A") (A") (A") (A") (A") (A") (A") (A")
                 (A") (A") (A") (A") (A") (A") (A") (A") (A")
 Beta  Orbitals:
       Occupied  (A') (A') (A') (A') (A') (A') (A') (A') (A') (A')
                 (A') (A') (A') (A') (A") (A') (A') (A") (A") (A")
                 (A") (A') (A') (A') (A') (A') (A") (A") (A") (A')
                 (A") (A") (A') (A') (A') (A') (A') (A") (A') (A')
                 (A') (A') (A') (A') (A') (A') (A') (A') (A') (A')
                 (A') (A') (A') (A') (A') (A') (A') (A') (A') (A')
       Virtual   (A') (A') (A') (A') (A') (A') (A') (A') (A') (A')
                 (A') (A') (A') (A') (A') (A') (A') (A') (A') (A')
                 (A') (A') (A') (A') (A') (A') (A') (A') (A') (A')
                 (A') (A') (A') (A') (A') (A') (A') (A') (A') (A')
                 (A') (A') (A') (A') (A') (A') (A') (A') (A') (A')
                 (A') (A') (A') (A') (A') (A') (A') (A') (A') (A')
                 (A') (A') (A') (A') (A') (A') (A') (A') (A') (A')
                 (A') (A') (A') (A') (A') (A') (A') (A') (A') (A')
                 (A') (A') (A') (A') (A') (A') (A') (A') (A') (A')
                 (A') (A') (A') (A') (A') (A') (A') (A') (A') (A')
                 (A') (A') (A') (A') (A') (A') (A') (A') (A') (A')
                 (A') (A') (A') (A') (A') (A') (A') (A') (A') (A')
                 (A') (A') (A') (A') (A') (A') (A') (A') (A') (A')
                 (A') (A') (A') (A') (A') (A') (A') (A') (A') (A')
                 (A') (A') (A') (A') (A') (A') (A') (A') (A') (A')
                 (A') (A') (A') (A') (A') (A") (A") (A") (A") (A")
                 (A") (A") (A") (A") (A") (A") (A") (A") (A") (A")
                 (A") (A") (A") (A") (A") (A") (A") (A") (A") (A")
                 (A") (A") (A") (A") (A") (A") (A") (A") (A") (A")
                 (A") (A") (A") (A") (A") (A") (A") (A") (A") (A")
                 (A") (A") (A") (A") (A") (A") (A") (A") (A") (A")
                 (A") (A") (A") (A") (A") (A") (A") (A") (A") (A")
 Initial guess <Sx>= 0.0000 <Sy>= 0.0000 <Sz>= 0.5000 <S**2>= 0.7500 S= 0.5000
 Requested convergence on RMS density matrix=1.00D-08 within 128 cycles.
 Requested convergence on MAX density matrix=1.00D-06.
 Requested convergence on             energy=1.00D-06.
 No special actions if energy rises.
 EnCoef did     5 forward-backward iterations
 EnCoef did     8 forward-backward iterations
 Restarting incremental Fock formation.
 SCF Done:  E(UM062X) =  -2529.48452024     A.U. after   29 cycles
            NFock= 29  Conv=0.39D-08     -V/T= 2.0022
 <Sx>= 0.0000 <Sy>= 0.0000 <Sz>= 0.5000 <S**2>= 0.7640 S= 0.5070
 <L.S>=  0.00000000000    
 Annihilation of the first spin contaminant:
 S**2 before annihilation     0.7640,   after     0.7501

 **********************************************************************

            Population analysis using the SCF Density.

 **********************************************************************

 Orbital symmetries:
 Alpha Orbitals:
       Occupied  (A') (A') (A') (A') (A') (A') (A') (A') (A') (A')
                 (A') (A') (A') (A') (A') (A') (A') (A') (A') (A')
                 (A') (A") (A") (A') (A') (A") (A") (A') (A') (A")
                 (A') (A') (A') (A') (A') (A') (A') (A') (A') (A')
                 (A') (A') (A') (A') (A") (A') (A') (A') (A") (A")
                 (A") (A') (A") (A') (A') (A') (A") (A') (A') (A")
                 (A")
       Virtual   (A") (A") (A') (A') (A') (A') (A') (A') (A") (A')
                 (A') (A') (A") (A") (A') (A') (A") (A') (A") (A')
                 (A') (A") (A') (A') (A') (A") (A") (A") (A') (A')
                 (A') (A') (A") (A') (A') (A') (A") (A') (A') (A')
                 (A') (A") (A') (A') (A') (A') (A') (A') (A') (A')
                 (A') (A') (A') (A') (A') (A') (A") (A') (A") (A')
                 (A") (A') (A') (A') (A') (A") (A') (A") (A') (A')
                 (A") (A') (A") (A") (A') (A") (A") (A') (A') (A')
                 (A') (A") (A') (A') (A") (A') (A") (A') (A") (A')
                 (A') (A') (A") (A') (A") (A') (A") (A") (A') (A")
                 (A') (A") (A') (A') (A') (A') (A') (A') (A') (A")
                 (A') (A') (A') (A") (A') (A') (A') (A') (A') (A")
                 (A') (A') (A') (A") (A") (A') (A') (A') (A") (A")
                 (A') (A') (A') (A') (A') (A') (A") (A") (A') (A')
                 (A') (A") (A') (A") (A") (A') (A') (A') (A') (A")
                 (A") (A') (A") (A") (A") (A') (A") (A') (A') (A')
                 (A') (A') (A') (A') (A') (A') (A') (A") (A') (A')
                 (A") (A") (A") (A") (A') (A') (A") (A') (A') (A')
                 (A') (A') (A') (A') (A') (A') (A') (A') (A') (A')
                 (A') (A') (A') (A') (A') (A') (A') (A') (A') (A")
                 (A") (A") (A") (A") (A') (A') (A') (A') (A') (A')
                 (A') (A') (A') (A') (A') (A') (A') (A') (A')
 Beta  Orbitals:
       Occupied  (A') (A') (A') (A') (A') (A') (A') (A') (A') (A')
                 (A') (A') (A') (A') (A') (A') (A') (A') (A') (A')
                 (A') (A") (A") (A') (A') (A") (A") (A') (A') (A")
                 (A') (A') (A') (A') (A') (A') (A') (A') (A') (A')
                 (A') (A') (A') (A') (A") (A') (A') (A') (A") (A")
                 (A") (A") (A') (A') (A') (A') (A") (A') (A") (A")
       Virtual   (A') (A") (A") (A') (A') (A') (A') (A') (A') (A")
                 (A') (A') (A') (A") (A") (A') (A') (A") (A') (A")
                 (A') (A') (A") (A') (A') (A') (A") (A') (A") (A')
                 (A") (A') (A') (A") (A') (A') (A') (A") (A') (A')
                 (A') (A') (A") (A') (A') (A') (A') (A') (A') (A')
                 (A') (A') (A') (A') (A') (A') (A') (A') (A") (A")
                 (A') (A") (A') (A') (A') (A') (A") (A') (A") (A')
                 (A') (A") (A') (A') (A") (A") (A") (A") (A') (A')
                 (A') (A') (A") (A') (A') (A") (A') (A") (A') (A")
                 (A') (A') (A') (A") (A') (A") (A') (A') (A") (A")
                 (A") (A') (A") (A') (A') (A') (A') (A') (A') (A')
                 (A") (A') (A') (A') (A") (A') (A') (A') (A') (A')
                 (A') (A") (A') (A') (A") (A") (A') (A') (A') (A")
                 (A") (A') (A') (A') (A') (A') (A') (A") (A") (A')
                 (A') (A') (A") (A') (A") (A") (A') (A') (A') (A')
                 (A") (A") (A') (A") (A") (A") (A') (A") (A') (A')
                 (A') (A') (A') (A') (A') (A') (A') (A') (A") (A')
                 (A') (A") (A") (A") (A") (A') (A') (A") (A') (A')
                 (A') (A') (A') (A') (A') (A') (A') (A') (A') (A')
                 (A') (A') (A') (A') (A') (A') (A') (A') (A') (A')
                 (A") (A") (A") (A") (A") (A') (A') (A') (A') (A')
                 (A') (A') (A') (A') (A') (A') (A') (A') (A') (A')
 The electronic state is 2-A'.
 Alpha  occ. eigenvalues -- -102.71027-102.71027-102.70869-102.70869-102.70609
 Alpha  occ. eigenvalues --  -10.65798 -10.65790 -10.65553 -10.65402 -10.65402
 Alpha  occ. eigenvalues --  -10.62180  -9.85354  -9.85354  -9.85207  -9.85207
 Alpha  occ. eigenvalues --   -9.84959  -7.57924  -7.57924  -7.57748  -7.57748
 Alpha  occ. eigenvalues --   -7.57491  -7.57164  -7.57164  -7.57156  -7.57156
 Alpha  occ. eigenvalues --   -7.57041  -7.57041  -7.57003  -7.57003  -7.56776
 Alpha  occ. eigenvalues --   -7.56749  -1.08570  -1.04445  -1.02744  -0.99685
 Alpha  occ. eigenvalues --   -0.97938  -0.94288  -0.84473  -0.83805  -0.71647
 Alpha  occ. eigenvalues --   -0.71560  -0.63652  -0.60811  -0.56776  -0.55295
 Alpha  occ. eigenvalues --   -0.55031  -0.52849  -0.51161  -0.49150  -0.47689
 Alpha  occ. eigenvalues --   -0.43946  -0.43371  -0.42778  -0.42301  -0.41349
 Alpha  occ. eigenvalues --   -0.41188  -0.39313  -0.38518  -0.35658  -0.32686
 Alpha  occ. eigenvalues --   -0.31243
 Alpha virt. eigenvalues --   -0.03408  -0.02827  -0.00044   0.01719   0.01831
 Alpha virt. eigenvalues --    0.02820   0.04040   0.04432   0.04764   0.05730
 Alpha virt. eigenvalues --    0.06099   0.06334   0.07103   0.07268   0.08690
 Alpha virt. eigenvalues --    0.08802   0.09956   0.10068   0.10189   0.10511
 Alpha virt. eigenvalues --    0.10915   0.10926   0.12298   0.12853   0.13110
 Alpha virt. eigenvalues --    0.13534   0.15224   0.15587   0.15635   0.15757
 Alpha virt. eigenvalues --    0.15868   0.16282   0.16901   0.17921   0.18580
 Alpha virt. eigenvalues --    0.19405   0.19738   0.21297   0.21705   0.22438
 Alpha virt. eigenvalues --    0.22890   0.23607   0.23807   0.24295   0.25402
 Alpha virt. eigenvalues --    0.26656   0.27169   0.27291   0.28615   0.28693
 Alpha virt. eigenvalues --    0.29197   0.30004   0.30605   0.32103   0.40579
 Alpha virt. eigenvalues --    0.41373   0.43392   0.43770   0.45543   0.45543
 Alpha virt. eigenvalues --    0.46915   0.48508   0.48591   0.49419   0.49588
 Alpha virt. eigenvalues --    0.49721   0.49739   0.50855   0.51435   0.52586
 Alpha virt. eigenvalues --    0.53226   0.55792   0.59388   0.60261   0.60504
 Alpha virt. eigenvalues --    0.62345   0.63245   0.63758   0.65352   0.65616
 Alpha virt. eigenvalues --    0.66251   0.68353   0.68645   0.70243   0.75530
 Alpha virt. eigenvalues --    0.77638   0.82070   0.84350   0.85712   0.86607
 Alpha virt. eigenvalues --    0.86757   0.86916   0.87601   0.88527   0.88717
 Alpha virt. eigenvalues --    0.89215   0.90379   0.90399   0.90474   0.92239
 Alpha virt. eigenvalues --    0.93613   0.93768   0.94172   0.96035   0.96151
 Alpha virt. eigenvalues --    0.96916   0.97188   0.98235   0.99098   1.00459
 Alpha virt. eigenvalues --    1.02251   1.03199   1.05535   1.06699   1.06827
 Alpha virt. eigenvalues --    1.11217   1.15709   1.20926   1.22340   1.24311
 Alpha virt. eigenvalues --    1.25814   1.27082   1.28112   1.30965   1.32268
 Alpha virt. eigenvalues --    1.33016   1.33152   1.34282   1.35250   1.36287
 Alpha virt. eigenvalues --    1.46532   1.47177   1.48801   1.54899   1.70778
 Alpha virt. eigenvalues --    1.70820   1.76730   1.79419   1.79714   1.79970
 Alpha virt. eigenvalues --    1.83202   1.84745   1.86133   1.91514   1.97464
 Alpha virt. eigenvalues --    2.10116   2.11393   2.19553   2.21967   2.25213
 Alpha virt. eigenvalues --    2.25976   2.27087   2.27190   2.28315   2.30575
 Alpha virt. eigenvalues --    2.33678   2.34303   2.34439   2.39940   2.40965
 Alpha virt. eigenvalues --    2.42493   2.48580   2.48802   2.49427   2.51481
 Alpha virt. eigenvalues --    2.56233   2.58912   2.64374   2.65772   2.66211
 Alpha virt. eigenvalues --    2.77861   2.80133   2.88816   2.91259   2.91371
 Alpha virt. eigenvalues --    3.03253   3.08697   3.10701   3.19766   3.20907
 Alpha virt. eigenvalues --    3.25565   3.30041   3.47476   3.61000   3.70504
 Alpha virt. eigenvalues --    3.92414   3.94109   4.73796   9.88418   9.97416
 Alpha virt. eigenvalues --    9.98643  10.00390  10.01202  23.29911  23.80323
 Alpha virt. eigenvalues --   23.84133  23.95582  23.95735  24.14087  25.85273
 Alpha virt. eigenvalues --   25.88356  25.91278  25.94630  26.00982  26.14020
 Alpha virt. eigenvalues --   26.15630  26.21893  26.26721  26.36718  26.43634
 Alpha virt. eigenvalues --   26.63429  26.73851  26.89119  27.02541 215.97635
 Alpha virt. eigenvalues --  216.07693 216.09151 216.11328 216.12319
  Beta  occ. eigenvalues -- -102.70993-102.70993-102.70846-102.70846-102.70616
  Beta  occ. eigenvalues --  -10.65731 -10.65716 -10.65582 -10.65448 -10.65447
  Beta  occ. eigenvalues --  -10.61179  -9.85341  -9.85340  -9.85198  -9.85198
  Beta  occ. eigenvalues --   -9.84962  -7.57843  -7.57843  -7.57709  -7.57709
  Beta  occ. eigenvalues --   -7.57491  -7.57171  -7.57171  -7.57124  -7.57124
  Beta  occ. eigenvalues --   -7.57025  -7.57025  -7.56984  -7.56984  -7.56799
  Beta  occ. eigenvalues --   -7.56751  -1.08221  -1.04274  -1.02409  -0.99525
  Beta  occ. eigenvalues --   -0.97809  -0.93550  -0.83493  -0.83115  -0.71295
  Beta  occ. eigenvalues --   -0.70161  -0.63013  -0.60121  -0.56275  -0.54976
  Beta  occ. eigenvalues --   -0.54795  -0.52396  -0.50781  -0.49146  -0.47424
  Beta  occ. eigenvalues --   -0.43923  -0.42750  -0.42404  -0.42259  -0.41060
  Beta  occ. eigenvalues --   -0.40915  -0.38754  -0.38453  -0.31664  -0.31301
  Beta virt. eigenvalues --   -0.10287  -0.03465  -0.01742   0.00126   0.01209
  Beta virt. eigenvalues --    0.01840   0.03129   0.04020   0.04236   0.04640
  Beta virt. eigenvalues --    0.05016   0.06134   0.06413   0.06877   0.07095
  Beta virt. eigenvalues --    0.08688   0.08772   0.09749   0.10127   0.10153
  Beta virt. eigenvalues --    0.10387   0.10619   0.11049   0.12294   0.12849
  Beta virt. eigenvalues --    0.13447   0.13599   0.15544   0.15550   0.15566
  Beta virt. eigenvalues --    0.15618   0.16039   0.16316   0.16909   0.17910
  Beta virt. eigenvalues --    0.18162   0.19300   0.19582   0.21259   0.21609
  Beta virt. eigenvalues --    0.21990   0.22693   0.23481   0.23788   0.24512
  Beta virt. eigenvalues --    0.25488   0.25886   0.27240   0.27354   0.28603
  Beta virt. eigenvalues --    0.28976   0.29524   0.29830   0.30541   0.32754
  Beta virt. eigenvalues --    0.40598   0.41747   0.42820   0.43407   0.45551
  Beta virt. eigenvalues --    0.45800   0.46997   0.48594   0.48618   0.49377
  Beta virt. eigenvalues --    0.49653   0.49746   0.49879   0.50844   0.51445
  Beta virt. eigenvalues --    0.52114   0.53412   0.53817   0.58337   0.59647
  Beta virt. eigenvalues --    0.60283   0.62272   0.63241   0.64080   0.65275
  Beta virt. eigenvalues --    0.66420   0.67653   0.68220   0.69310   0.69474
  Beta virt. eigenvalues --    0.75695   0.77873   0.82141   0.84476   0.85762
  Beta virt. eigenvalues --    0.86500   0.86822   0.87004   0.87631   0.88503
  Beta virt. eigenvalues --    0.88861   0.89300   0.90333   0.90397   0.90448
  Beta virt. eigenvalues --    0.92322   0.93603   0.93887   0.94580   0.95788
  Beta virt. eigenvalues --    0.96157   0.97072   0.97248   0.97835   0.99322
  Beta virt. eigenvalues --    1.00954   1.01970   1.03104   1.05194   1.07175
  Beta virt. eigenvalues --    1.07740   1.11189   1.15508   1.20806   1.22465
  Beta virt. eigenvalues --    1.25026   1.26123   1.27518   1.27709   1.31161
  Beta virt. eigenvalues --    1.32974   1.33009   1.33199   1.34033   1.35753
  Beta virt. eigenvalues --    1.36353   1.46417   1.47599   1.49537   1.57638
  Beta virt. eigenvalues --    1.71034   1.71306   1.77490   1.79369   1.80077
  Beta virt. eigenvalues --    1.80563   1.83851   1.84814   1.86990   1.92315
  Beta virt. eigenvalues --    1.97907   2.11142   2.11564   2.19564   2.22617
  Beta virt. eigenvalues --    2.25227   2.26013   2.27180   2.27599   2.28331
  Beta virt. eigenvalues --    2.30653   2.33704   2.34336   2.34978   2.39896
  Beta virt. eigenvalues --    2.40992   2.42954   2.48939   2.49011   2.49840
  Beta virt. eigenvalues --    2.52104   2.56664   2.58978   2.64505   2.65913
  Beta virt. eigenvalues --    2.66350   2.78386   2.80151   2.89073   2.91063
  Beta virt. eigenvalues --    2.93065   3.05783   3.08744   3.10950   3.19788
  Beta virt. eigenvalues --    3.20908   3.25774   3.30480   3.47986   3.61087
  Beta virt. eigenvalues --    3.70880   3.93165   3.94254   4.74024   9.88429
  Beta virt. eigenvalues --    9.97422   9.98648  10.00398  10.01205  23.30027
  Beta virt. eigenvalues --   23.80454  23.84172  23.95602  23.95741  24.14960
  Beta virt. eigenvalues --   25.85284  25.88381  25.91253  25.94657  26.00990
  Beta virt. eigenvalues --   26.14083  26.15673  26.21960  26.26763  26.36748
  Beta virt. eigenvalues --   26.43720  26.63598  26.73962  26.89275  27.02609
  Beta virt. eigenvalues --  215.97664 216.07738 216.09185 216.11371 216.12333
          Condensed to atoms (all electrons):
               1          2          3          4          5          6
     1  C   13.175370  -0.932438  -3.242659   1.882387  -3.242658  -0.932434
     2  C   -0.932438  18.460266  -4.466154  -7.332705   2.131713  -1.732292
     3  C   -3.242659  -4.466154  17.724555   0.527112  -4.723736   2.131715
     4  C    1.882387  -7.332705   0.527112  19.348166   0.527121  -7.332705
     5  C   -3.242658   2.131713  -4.723736   0.527121  17.724555  -4.466162
     6  C   -0.932434  -1.732292   2.131715  -7.332705  -4.466162  18.460268
     7  Cl   0.407840  -0.323127   0.421395  -0.321989  -0.648864  -0.231233
     8  Cl  -0.872541  -0.044733  -0.091183   0.430155  -0.091183  -0.044733
     9  Cl   0.407840  -0.231235  -0.648864  -0.321989   0.421395  -0.323127
    10  Cl  -0.170541   0.205851  -0.437182  -0.283115  -0.443898   0.323370
    11  Cl  -0.170541   0.323370  -0.443898  -0.283114  -0.437182   0.205850
               7          8          9         10         11
     1  C    0.407840  -0.872541   0.407840  -0.170541  -0.170541
     2  C   -0.323127  -0.044733  -0.231235   0.205851   0.323370
     3  C    0.421395  -0.091183  -0.648864  -0.437182  -0.443898
     4  C   -0.321989   0.430155  -0.321989  -0.283115  -0.283114
     5  C   -0.648864  -0.091183   0.421395  -0.443898  -0.437182
     6  C   -0.231233  -0.044733  -0.323127   0.323370   0.205850
     7  Cl  17.778690  -0.358838   0.013786  -0.001548  -0.301472
     8  Cl  -0.358838  17.813101  -0.358838   0.015600   0.015600
     9  Cl   0.013786  -0.358838  17.778690  -0.301472  -0.001548
    10  Cl  -0.001548   0.015600  -0.301472  17.602316  -0.034314
    11  Cl  -0.301472   0.015600  -0.001548  -0.034314  17.602315
          Atomic-Atomic Spin Densities.
               1          2          3          4          5          6
     1  C    0.563792  -0.288074  -0.186846   0.309746  -0.186846  -0.288074
     2  C   -0.288074   0.505055  -0.080599  -0.384882   0.146745   0.230552
     3  C   -0.186846  -0.080599  -0.259123   0.069974   0.319057   0.146745
     4  C    0.309746  -0.384882   0.069974   1.135019   0.069974  -0.384881
     5  C   -0.186846   0.146745   0.319057   0.069974  -0.259123  -0.080599
     6  C   -0.288074   0.230552   0.146745  -0.384881  -0.080599   0.505055
     7  Cl  -0.101256   0.043235   0.029458  -0.023641   0.098461  -0.065187
     8  Cl   0.085955  -0.006840  -0.034640   0.000723  -0.034640  -0.006840
     9  Cl  -0.101256  -0.065187   0.098461  -0.023641   0.029458   0.043235
    10  Cl   0.059151   0.051947  -0.052158  -0.033494  -0.020806  -0.016797
    11  Cl   0.059151  -0.016797  -0.020806  -0.033494  -0.052158   0.051947
               7          8          9         10         11
     1  C   -0.101256   0.085955  -0.101256   0.059151   0.059151
     2  C    0.043235  -0.006840  -0.065187   0.051947  -0.016797
     3  C    0.029458  -0.034640   0.098461  -0.052158  -0.020806
     4  C   -0.023641   0.000723  -0.023641  -0.033494  -0.033494
     5  C    0.098461  -0.034640   0.029458  -0.020806  -0.052158
     6  C   -0.065187  -0.006840   0.043235  -0.016797   0.051947
     7  Cl   0.081333  -0.011726   0.005373  -0.002302  -0.039209
     8  Cl  -0.011726   0.005647  -0.011726   0.005103   0.005103
     9  Cl   0.005373  -0.011726   0.081333  -0.039209  -0.002302
    10  Cl  -0.002302   0.005103  -0.039209   0.054168   0.003695
    11  Cl  -0.039209   0.005103  -0.002302   0.003695   0.054168
 Mulliken charges and spin densities:
               1          2
     1  C   -0.309624  -0.074558
     2  C   -0.058518   0.135155
     3  C   -0.751102   0.029524
     4  C   -0.839323   0.701404
     5  C   -0.751102   0.029524
     6  C   -0.058517   0.135155
     7  Cl   0.565362   0.014539
     8  Cl   0.587593  -0.003879
     9  Cl   0.565362   0.014539
    10  Cl   0.524934   0.009299
    11  Cl   0.524934   0.009299
 Sum of Mulliken charges =  -0.00000   1.00000
 Mulliken charges and spin densities with hydrogens summed into heavy atoms:
               1          2
     1  C   -0.309624  -0.074558
     2  C   -0.058518   0.135155
     3  C   -0.751102   0.029524
     4  C   -0.839323   0.701404
     5  C   -0.751102   0.029524
     6  C   -0.058517   0.135155
     7  Cl   0.565362   0.014539
     8  Cl   0.587593  -0.003879
     9  Cl   0.565362   0.014539
    10  Cl   0.524934   0.009299
    11  Cl   0.524934   0.009299
 Electronic spatial extent (au):  <R**2>=           3317.0028
 Charge=             -0.0000 electrons
 Dipole moment (field-independent basis, Debye):
    X=              0.0000    Y=             -0.1478    Z=              0.0000  Tot=              0.1478
 Quadrupole moment (field-independent basis, Debye-Ang):
   XX=            -94.9010   YY=            -95.7403   ZZ=            -97.2028
   XY=             -0.0000   XZ=             -0.0000   YZ=              0.0000
 Traceless Quadrupole moment (field-independent basis, Debye-Ang):
   XX=              1.0470   YY=              0.2077   ZZ=             -1.2548
   XY=             -0.0000   XZ=             -0.0000   YZ=              0.0000
 Octapole moment (field-independent basis, Debye-Ang**2):
  XXX=              0.0000  YYY=             15.0123  ZZZ=             -0.0000  XYY=             -0.0000
  XXY=              1.5068  XXZ=             -0.0000  XZZ=             -0.0000  YZZ=              2.7757
  YYZ=             -0.0000  XYZ=             -0.0000
 Hexadecapole moment (field-independent basis, Debye-Ang**3):
 XXXX=          -2345.2958 YYYY=          -1640.4076 ZZZZ=           -111.1180 XXXY=             -0.0000
 XXXZ=             -0.0000 YYYX=              0.0000 YYYZ=              0.0000 ZZZX=             -0.0000
 ZZZY=              0.0000 XXYY=           -645.2867 XXZZ=           -435.8931 YYZZ=           -305.5924
 XXYZ=              0.0000 YYXZ=             -0.0000 ZZXY=              0.0000
 N-N= 1.062829274022D+03 E-N=-8.124741676501D+03  KE= 2.524030261789D+03
 Symmetry A'   KE= 2.287739531175D+03
 Symmetry A"   KE= 2.362907306148D+02
 Symmetry A'   SP= 1.000000000000D+00
 Symmetry A"   SP= 3.670360541240D-14
                          Isotropic Fermi Contact Couplings
        Atom                 a.u.       MegaHertz       Gauss      10(-4) cm-1
     1  C(13)             -0.00974     -10.95366      -3.90854      -3.65375
     2  C(13)              0.05187      58.31393      20.80786      19.45143
     3  C(13)             -0.01531     -17.20825      -6.14033      -5.74006
     4  C(13)              0.45253     508.73095     181.52785     169.69438
     5  C(13)             -0.01531     -17.20825      -6.14033      -5.74006
     6  C(13)              0.05187      58.31390      20.80785      19.45142
     7  Cl(35)             0.00463       2.03101       0.72472       0.67747
     8  Cl(35)             0.00037       0.16159       0.05766       0.05390
     9  Cl(35)             0.00463       2.03101       0.72472       0.67747
    10  Cl(35)             0.01624       7.11890       2.54020       2.37461
    11  Cl(35)             0.01624       7.11891       2.54021       2.37461
 --------------------------------------------------------
       Center         ----  Spin Dipole Couplings  ----
                      3XX-RR        3YY-RR        3ZZ-RR
 --------------------------------------------------------
     1   Atom        0.020227      0.037305     -0.057532
     2   Atom       -0.029548      0.023976      0.005572
     3   Atom        0.089875      0.013159     -0.103034
     4   Atom       -0.575923      0.963639     -0.387716
     5   Atom        0.089875      0.013159     -0.103034
     6   Atom       -0.029548      0.023976      0.005572
     7   Atom       -0.036382      0.068755     -0.032373
     8   Atom        0.019708      0.030717     -0.050424
     9   Atom       -0.036382      0.068755     -0.032373
    10   Atom        0.232924     -0.077403     -0.155521
    11   Atom        0.232924     -0.077403     -0.155521
 --------------------------------------------------------
                        XY            XZ            YZ
 --------------------------------------------------------
     1   Atom       -0.000000      0.000000     -0.000000
     2   Atom        0.001127      0.000000      0.000000
     3   Atom        0.054685      0.000000      0.000000
     4   Atom        0.000000     -0.000000     -0.000000
     5   Atom       -0.054684      0.000000     -0.000000
     6   Atom       -0.001127      0.000000     -0.000000
     7   Atom       -0.076293      0.000000     -0.000000
     8   Atom        0.000000     -0.000000     -0.000000
     9   Atom        0.076293      0.000000      0.000000
    10   Atom       -0.032386     -0.000000      0.000000
    11   Atom        0.032386      0.000000      0.000000
 --------------------------------------------------------


 ---------------------------------------------------------------------------------
              Anisotropic Spin Dipole Couplings in Principal Axis System
 ---------------------------------------------------------------------------------

       Atom             a.u.   MegaHertz   Gauss  10(-4) cm-1        Axes

              Baa    -0.0575    -7.720    -2.755    -2.575  0.0000  0.0000  1.0000
     1 C(13)  Bbb     0.0202     2.714     0.969     0.905  1.0000  0.0000  0.0000
              Bcc     0.0373     5.006     1.786     1.670 -0.0000  1.0000 -0.0000
 
              Baa    -0.0296    -3.968    -1.416    -1.324  0.9998 -0.0210 -0.0000
     2 C(13)  Bbb     0.0056     0.748     0.267     0.249  0.0000  0.0000  1.0000
              Bcc     0.0240     3.221     1.149     1.074  0.0210  0.9998 -0.0000
 
              Baa    -0.1030   -13.826    -4.934    -4.612  0.0000  0.0000  1.0000
     3 C(13)  Bbb    -0.0153    -2.050    -0.732    -0.684 -0.4614  0.8872  0.0000
              Bcc     0.1183    15.877     5.665     5.296  0.8872  0.4614 -0.0000
 
              Baa    -0.5759   -77.283   -27.577   -25.779  1.0000 -0.0000  0.0000
     4 C(13)  Bbb    -0.3877   -52.028   -18.565   -17.355  0.0000  0.0000  1.0000
              Bcc     0.9636   129.311    46.141    43.134  0.0000  1.0000 -0.0000
 
              Baa    -0.1030   -13.826    -4.934    -4.612  0.0000  0.0000  1.0000
     5 C(13)  Bbb    -0.0153    -2.050    -0.732    -0.684  0.4614  0.8872  0.0000
              Bcc     0.1183    15.877     5.665     5.296  0.8872 -0.4614  0.0000
 
              Baa    -0.0296    -3.968    -1.416    -1.324  0.9998  0.0210  0.0000
     6 C(13)  Bbb     0.0056     0.748     0.267     0.249  0.0000  0.0000  1.0000
              Bcc     0.0240     3.221     1.149     1.074 -0.0210  0.9998  0.0000
 
              Baa    -0.0765    -4.002    -1.428    -1.335  0.8853  0.4651 -0.0000
     7 Cl(35) Bbb    -0.0324    -1.694    -0.605    -0.565  0.0000  0.0000  1.0000
              Bcc     0.1088     5.696     2.033     1.900 -0.4651  0.8853 -0.0000
 
              Baa    -0.0504    -2.639    -0.942    -0.880  0.0000  0.0000  1.0000
     8 Cl(35) Bbb     0.0197     1.031     0.368     0.344  1.0000 -0.0000  0.0000
              Bcc     0.0307     1.608     0.574     0.536  0.0000  1.0000 -0.0000
 
              Baa    -0.0765    -4.002    -1.428    -1.335  0.8853 -0.4651 -0.0000
     9 Cl(35) Bbb    -0.0324    -1.694    -0.605    -0.565  0.0000  0.0000  1.0000
              Bcc     0.1088     5.696     2.033     1.900  0.4651  0.8853 -0.0000
 
              Baa    -0.1555    -8.140    -2.904    -2.715  0.0000  0.0000  1.0000
    10 Cl(35) Bbb    -0.0807    -4.226    -1.508    -1.410  0.1027  0.9947  0.0000
              Bcc     0.2363    12.366     4.412     4.125  0.9947 -0.1027  0.0000
 
              Baa    -0.1555    -8.140    -2.904    -2.715  0.0000  0.0000  1.0000
    11 Cl(35) Bbb    -0.0807    -4.226    -1.508    -1.410 -0.1027  0.9947  0.0000
              Bcc     0.2363    12.366     4.412     4.125  0.9947  0.1027 -0.0000
 

 ---------------------------------------------------------------------------------

 Calling FoFJK, ICntrl=      2127 FMM=F ISym2X=1 I1Cent= 0 IOpClX= 1 NMat=1 NMatS=1 NMatT=0.
 ***** Axes restored to original set *****
 -------------------------------------------------------------------
 Center     Atomic                   Forces (Hartrees/Bohr)
 Number     Number              X              Y              Z
 -------------------------------------------------------------------
      1        6           0.022418556   -0.012135035    0.000000000
      2        6           0.004747893   -0.028910442    0.000000000
      3        6          -0.040359595   -0.016298591    0.000000000
      4        6           0.004340192   -0.002349313   -0.000000000
      5        6          -0.008421940    0.042703735   -0.000000000
      6        6           0.026801905    0.011832775   -0.000000000
      7       17          -0.016573183   -0.010430918    0.000000000
      8       17          -0.015822727    0.008564748   -0.000000000
      9       17          -0.000328619    0.019579727   -0.000000000
     10       17           0.021011418    0.011110831   -0.000000000
     11       17           0.002186099   -0.023667516    0.000000000
 -------------------------------------------------------------------
 Cartesian Forces:  Max     0.042703735 RMS     0.015954976

 GradGradGradGradGradGradGradGradGradGradGradGradGradGradGradGradGradGrad
 Berny optimization.
 FormGI is forming the generalized inverse of G from B-inverse, IUseBI=4.
 Internal  Forces:  Max     0.023765975 RMS     0.008038853
 Search for a local minimum.
 Step number   1 out of a maximum of   57
 All quantities printed in internal units (Hartrees-Bohrs-Radians)
 Mixed Optimization -- RFO/linear search
 Second derivative matrix not updated -- first step.
 ITU=  0
     Eigenvalues ---    0.01839   0.01843   0.01858   0.01873   0.01902
     Eigenvalues ---    0.01997   0.02049   0.02350   0.25000   0.25000
     Eigenvalues ---    0.25000   0.25000   0.25000   0.25000   0.25000
     Eigenvalues ---    0.25000   0.37096   0.37885   0.37885   0.38791
     Eigenvalues ---    0.38791   0.39849   0.41070   0.42346   0.42914
     Eigenvalues ---    0.48626   0.50002
 RFO step:  Lambda=-7.80872879D-03 EMin= 1.83887619D-02
 Linear search not attempted -- first point.
 Iteration  1 RMS(Cart)=  0.01370861 RMS(Int)=  0.00011171
 Iteration  2 RMS(Cart)=  0.00013177 RMS(Int)=  0.00002478
 Iteration  3 RMS(Cart)=  0.00000002 RMS(Int)=  0.00002478
 ClnCor:  largest displacement from symmetrization is 4.88D-12 for atom     9.
 Variable       Old X    -DE/DX   Delta X   Delta X   Delta X     New X
                                 (Linear)    (Quad)   (Total)
    R1        2.67639  -0.00965   0.00000  -0.02192  -0.02196   2.65444
    R2        2.67639  -0.00965   0.00000  -0.02192  -0.02196   2.65444
    R3        3.19402   0.01799   0.00000   0.04750   0.04750   3.24152
    R4        2.68485  -0.01209   0.00000  -0.02803  -0.02803   2.65682
    R5        3.18233   0.01958   0.00000   0.05064   0.05064   3.23297
    R6        2.59464  -0.00882   0.00000  -0.01734  -0.01730   2.57734
    R7        3.16930   0.02377   0.00000   0.06006   0.06006   3.22935
    R8        2.59464  -0.00882   0.00000  -0.01734  -0.01730   2.57734
    R9        2.68485  -0.01209   0.00000  -0.02803  -0.02803   2.65682
   R10        3.16930   0.02377   0.00000   0.06006   0.06006   3.22935
   R11        3.18233   0.01958   0.00000   0.05064   0.05064   3.23297
    A1        2.12353  -0.00220   0.00000  -0.00815  -0.00822   2.11531
    A2        2.07983   0.00110   0.00000   0.00407   0.00411   2.08394
    A3        2.07983   0.00110   0.00000   0.00407   0.00411   2.08394
    A4        2.08359  -0.00002   0.00000   0.00013   0.00009   2.08369
    A5        2.10833   0.00036   0.00000   0.00130   0.00132   2.10965
    A6        2.09126  -0.00034   0.00000  -0.00143  -0.00141   2.08985
    A7        2.00734   0.00560   0.00000   0.02154   0.02157   2.02890
    A8        2.14892  -0.00228   0.00000  -0.00874  -0.00876   2.14016
    A9        2.12693  -0.00332   0.00000  -0.01280  -0.01281   2.11412
   A10        2.26099  -0.00895   0.00000  -0.03519  -0.03510   2.22589
   A11        2.00734   0.00560   0.00000   0.02154   0.02157   2.02890
   A12        2.12693  -0.00332   0.00000  -0.01280  -0.01281   2.11412
   A13        2.14892  -0.00228   0.00000  -0.00874  -0.00876   2.14016
   A14        2.08359  -0.00002   0.00000   0.00013   0.00009   2.08369
   A15        2.10833   0.00036   0.00000   0.00130   0.00132   2.10965
   A16        2.09126  -0.00034   0.00000  -0.00143  -0.00141   2.08985
    D1        0.00000  -0.00000   0.00000  -0.00000  -0.00000   0.00000
    D2        3.14159  -0.00000   0.00000  -0.00000   0.00000   3.14159
    D3        3.14159   0.00000   0.00000  -0.00000   0.00000   3.14159
    D4       -0.00000  -0.00000   0.00000  -0.00000   0.00000   0.00000
    D5       -0.00000  -0.00000   0.00000  -0.00000   0.00000   0.00000
    D6        3.14159   0.00000   0.00000  -0.00000   0.00000   3.14159
    D7        3.14159  -0.00000   0.00000  -0.00000   0.00000   3.14159
    D8       -0.00000   0.00000   0.00000  -0.00000   0.00000   0.00000
    D9       -0.00000   0.00000   0.00000   0.00000   0.00000   0.00000
   D10        3.14159   0.00000   0.00000   0.00000   0.00000   3.14159
   D11        3.14159   0.00000   0.00000   0.00000   0.00000   3.14159
   D12        0.00000   0.00000   0.00000   0.00000  -0.00000   0.00000
   D13        0.00000   0.00000   0.00000  -0.00000   0.00000   0.00000
   D14        3.14159   0.00000   0.00000  -0.00000   0.00000   3.14159
   D15       -0.00000  -0.00000   0.00000  -0.00000   0.00000   0.00000
   D16        3.14159  -0.00000   0.00000  -0.00000   0.00000   3.14159
   D17        0.00000   0.00000   0.00000   0.00000  -0.00000   0.00000
   D18        3.14159  -0.00000   0.00000   0.00000   0.00000   3.14159
   D19        3.14159   0.00000   0.00000   0.00000   0.00000   3.14159
   D20       -0.00000  -0.00000   0.00000   0.00000   0.00000   0.00000
         Item               Value     Threshold  Converged?
 Maximum Force            0.023766     0.000450     NO 
 RMS     Force            0.008039     0.000300     NO 
 Maximum Displacement     0.038630     0.001800     NO 
 RMS     Displacement     0.013725     0.001200     NO 
 Predicted change in Energy=-3.984387D-03
 GradGradGradGradGradGradGradGradGradGradGradGradGradGradGradGradGradGrad

                          Input orientation:                          
 ---------------------------------------------------------------------
 Center     Atomic      Atomic             Coordinates (Angstroms)
 Number     Number       Type             X           Y           Z
 ---------------------------------------------------------------------
      1          6           0       -3.207408    0.198417    0.000000
      2          6           0       -2.018430    0.946364   -0.000000
      3          6           0       -0.782187    0.276786   -0.000000
      4          6           0       -0.834386   -1.086084   -0.000000
      5          6           0       -1.946933   -1.874996    0.000000
      6          6           0       -3.183517   -1.206048    0.000000
      7         17           0       -4.636757   -2.108809    0.000000
      8         17           0       -4.715928    1.014970    0.000000
      9         17           0       -2.057197    2.656738   -0.000000
     10         17           0        0.713365    1.103624   -0.000000
     11         17           0       -1.821462   -3.579283    0.000000
 ---------------------------------------------------------------------
                    Distance matrix (angstroms):
                    1          2          3          4          5
     1  C    0.000000
     2  C    1.404668   0.000000
     3  C    2.426486   1.405927   0.000000
     4  C    2.698365   2.352192   1.363870   0.000000
     5  C    2.426486   2.822265   2.446794   1.363870   0.000000
     6  C    1.404668   2.447510   2.822265   2.352192   1.405927
     7  Cl   2.714098   4.023645   4.533075   3.937510   2.699967
     8  Cl   1.715340   2.698371   4.002404   4.413706   4.002404
     9  Cl   2.714098   1.710814   2.699967   3.937510   4.533075
    10  Cl   4.023911   2.736318   1.708900   2.681484   3.993666
    11  Cl   4.023911   4.529931   3.993666   2.681484   1.708900
                    6          7          8          9         10
     6  C    0.000000
     7  Cl   1.710814   0.000000
     8  Cl   2.698371   3.124781   0.000000
     9  Cl   4.023645   5.418909   3.124781   0.000000
    10  Cl   4.529931   6.240476   5.430018   3.176189   0.000000
    11  Cl   2.736318   3.176189   5.430018   6.240475   5.324939
                   11
    11  Cl   0.000000
 Stoichiometry    C6Cl5(2)
 Framework group  CS[SG(C6Cl5)]
 Deg. of freedom    19
 Full point group                 CS      NOp   2
 Largest Abelian subgroup         CS      NOp   2
 Largest concise Abelian subgroup C1      NOp   1
                         Standard orientation:                         
 ---------------------------------------------------------------------
 Center     Atomic      Atomic             Coordinates (Angstroms)
 Number     Number       Type             X           Y           Z
 ---------------------------------------------------------------------
      1          6           0        0.972208    0.000000    0.000000
      2          6           0        0.282630   -1.223755    0.000000
      3          6           0       -1.123296   -1.223397   -0.000000
      4          6           0       -1.726158   -0.000000   -0.000000
      5          6           0       -1.123296    1.223397   -0.000000
      6          6           0        0.282630    1.223755    0.000000
      7         17           0        1.130912    2.709454    0.000000
      8         17           0        2.687548    0.000000    0.000000
      9         17           0        1.130912   -2.709454    0.000000
     10         17           0       -2.044930   -2.662469   -0.000000
     11         17           0       -2.044930    2.662469   -0.000000
 ---------------------------------------------------------------------
 Rotational constants (GHZ):           0.7080309           0.4674866           0.2815738
 Standard basis: 6-311++G(d,p) (5D, 7F)
 There are   217 symmetry adapted cartesian basis functions of A'  symmetry.
 There are    76 symmetry adapted cartesian basis functions of A"  symmetry.
 There are   206 symmetry adapted basis functions of A'  symmetry.
 There are    76 symmetry adapted basis functions of A"  symmetry.
   282 basis functions,   481 primitive gaussians,   293 cartesian basis functions
    61 alpha electrons       60 beta electrons
       nuclear repulsion energy      1058.8171494073 Hartrees.
 NAtoms=   11 NActive=   11 NUniq=   11 SFac= 1.00D+00 NAtFMM=   60 NAOKFM=F Big=F
 Integral buffers will be    131072 words long.
 Raffenetti 2 integral format.
 Two-electron integral symmetry is turned on.
 One-electron integrals computed using PRISM.
 NBasis=   282 RedAO= T EigKep=  2.26D-06  NBF=   206    76
 NBsUse=   280 1.00D-06 EigRej=  4.33D-07 NBFU=   204    76
 Initial guess from the checkpoint file:  "frequency_chks/123456-1234_6-ClBzNeutralRadical_Freq.chk"
 B after Tr=     0.000000    0.000000   -0.000000
         Rot=    0.707107    0.000000    0.000000    0.707107 Ang=  90.00 deg.
 Initial guess orbital symmetries:
 Alpha Orbitals:
       Occupied  (A') (A') (A') (A') (A') (A') (A') (A') (A') (A')
                 (A') (A') (A') (A') (A') (A') (A') (A') (A') (A')
                 (A') (A") (A") (A') (A') (A") (A") (A') (A') (A")
                 (A') (A') (A') (A') (A') (A') (A') (A') (A') (A')
                 (A') (A') (A') (A') (A") (A') (A') (A') (A") (A")
                 (A") (A') (A") (A') (A') (A') (A") (A') (A') (A")
                 (A")
       Virtual   (A") (A") (A') (A') (A') (A') (A') (A') (A") (A')
                 (A') (A') (A") (A") (A') (A') (A") (A') (A") (A')
                 (A') (A") (A') (A') (A') (A") (A") (A") (A') (A')
                 (A') (A') (A") (A') (A') (A') (A") (A') (A') (A')
                 (A') (A") (A') (A') (A') (A') (A') (A') (A') (A')
                 (A') (A') (A') (A') (A') (A') (A") (A') (A") (A')
                 (A") (A') (A') (A') (A') (A") (A') (A") (A') (A')
                 (A") (A') (A") (A") (A') (A") (A") (A') (A') (A')
                 (A') (A") (A') (A') (A") (A') (A") (A') (A") (A')
                 (A') (A') (A") (A') (A") (A') (A") (A") (A') (A")
                 (A') (A") (A') (A') (A') (A') (A') (A') (A') (A")
                 (A') (A') (A') (A") (A') (A') (A') (A') (A') (A")
                 (A') (A') (A') (A") (A") (A') (A') (A') (A") (A")
                 (A') (A') (A') (A') (A') (A') (A") (A") (A') (A')
                 (A') (A") (A') (A") (A") (A') (A') (A') (A') (A")
                 (A") (A') (A") (A") (A") (A') (A") (A') (A') (A')
                 (A') (A') (A') (A') (A') (A') (A') (A") (A') (A')
                 (A") (A") (A") (A") (A') (A') (A") (A') (A') (A')
                 (A') (A') (A') (A') (A') (A') (A') (A') (A') (A')
                 (A') (A') (A') (A') (A') (A') (A') (A') (A') (A")
                 (A") (A") (A") (A") (A') (A') (A') (A') (A') (A')
                 (A') (A') (A') (A') (A') (A') (A') (A') (A')
 Beta  Orbitals:
       Occupied  (A') (A') (A') (A') (A') (A') (A') (A') (A') (A')
                 (A') (A') (A') (A') (A') (A') (A') (A') (A') (A')
                 (A') (A") (A") (A') (A') (A") (A") (A') (A') (A")
                 (A') (A') (A') (A') (A') (A') (A') (A') (A') (A')
                 (A') (A') (A') (A') (A") (A') (A') (A') (A") (A")
                 (A") (A") (A') (A') (A') (A') (A") (A') (A") (A")
       Virtual   (A') (A") (A") (A') (A') (A') (A') (A') (A') (A")
                 (A') (A') (A') (A") (A") (A') (A') (A") (A') (A")
                 (A') (A') (A") (A') (A') (A') (A") (A') (A") (A')
                 (A") (A') (A') (A") (A') (A') (A') (A") (A') (A')
                 (A') (A') (A") (A') (A') (A') (A') (A') (A') (A')
                 (A') (A') (A') (A') (A') (A') (A') (A') (A") (A")
                 (A') (A") (A') (A') (A') (A') (A") (A') (A") (A')
                 (A') (A") (A') (A') (A") (A") (A") (A") (A') (A')
                 (A') (A') (A") (A') (A') (A") (A') (A") (A') (A")
                 (A') (A') (A') (A") (A') (A") (A') (A') (A") (A")
                 (A") (A') (A") (A') (A') (A') (A') (A') (A') (A')
                 (A") (A') (A') (A') (A") (A') (A') (A') (A') (A')
                 (A') (A") (A') (A') (A") (A") (A') (A') (A') (A")
                 (A") (A') (A') (A') (A') (A') (A') (A") (A") (A')
                 (A') (A') (A") (A') (A") (A") (A') (A') (A') (A')
                 (A") (A") (A') (A") (A") (A") (A') (A") (A') (A')
                 (A') (A') (A') (A') (A') (A') (A') (A') (A") (A')
                 (A') (A") (A") (A") (A") (A') (A') (A") (A') (A')
                 (A') (A') (A') (A') (A') (A') (A') (A') (A') (A')
                 (A') (A') (A') (A') (A') (A') (A') (A') (A') (A')
                 (A") (A") (A") (A") (A") (A') (A') (A') (A') (A')
                 (A') (A') (A') (A') (A') (A') (A') (A') (A') (A')
 Initial guess <Sx>= 0.0000 <Sy>= 0.0000 <Sz>= 0.5000 <S**2>= 0.7639 S= 0.5069
 ExpMin= 4.38D-02 ExpMax= 1.06D+05 ExpMxC= 3.62D+03 IAcc=3 IRadAn=         5 AccDes= 0.00D+00
 Harris functional with IExCor= 1009 and IRadAn=       5 diagonalized for initial guess.
 HarFok:  IExCor= 1009 AccDes= 0.00D+00 IRadAn=         5 IDoV= 1 UseB2=F ITyADJ=14
 ICtDFT=  3500011 ScaDFX=  1.000000  1.000000  1.000000  1.000000
 FoFCou: FMM=F IPFlag=           0 FMFlag=      100000 FMFlg1=           0
         NFxFlg=           0 DoJE=T BraDBF=F KetDBF=T FulRan=T
         wScrn=  0.000000 ICntrl=       500 IOpCl=  0 I1Cent=   200000004 NGrid=           0
         NMat0=    1 NMatS0=      1 NMatT0=    0 NMatD0=    1 NMtDS0=    0 NMtDT0=    0
 Petite list used in FoFCou.
 Requested convergence on RMS density matrix=1.00D-08 within 128 cycles.
 Requested convergence on MAX density matrix=1.00D-06.
 Requested convergence on             energy=1.00D-06.
 No special actions if energy rises.
 SCF Done:  E(UM062X) =  -2529.48941438     A.U. after   16 cycles
            NFock= 16  Conv=0.31D-08     -V/T= 2.0022
 <Sx>= 0.0000 <Sy>= 0.0000 <Sz>= 0.5000 <S**2>= 0.7635 S= 0.5067
 <L.S>=  0.00000000000    
 Annihilation of the first spin contaminant:
 S**2 before annihilation     0.7635,   after     0.7501
 Calling FoFJK, ICntrl=      2127 FMM=F ISym2X=1 I1Cent= 0 IOpClX= 1 NMat=1 NMatS=1 NMatT=0.
 ***** Axes restored to original set *****
 -------------------------------------------------------------------
 Center     Atomic                   Forces (Hartrees/Bohr)
 Number     Number              X              Y              Z
 -------------------------------------------------------------------
      1        6           0.004310053   -0.002333024   -0.000000000
      2        6           0.002028352   -0.006151832   -0.000000000
      3        6          -0.012864305   -0.002448549   -0.000000000
      4        6           0.005367845   -0.002905590   -0.000000000
      5        6          -0.004983963    0.012109709    0.000000000
      6        6           0.006259808    0.001665530    0.000000000
      7       17          -0.004235360   -0.002288102   -0.000000000
      8       17          -0.003407191    0.001844285   -0.000000000
      9       17          -0.000400097    0.004797246    0.000000000
     10       17           0.006671688    0.002860315    0.000000000
     11       17           0.001253170   -0.007149988   -0.000000000
 -------------------------------------------------------------------
 Cartesian Forces:  Max     0.012864305 RMS     0.004454851

 GradGradGradGradGradGradGradGradGradGradGradGradGradGradGradGradGradGrad
 Berny optimization.
 Using GEDIIS/GDIIS optimizer.
 FormGI is forming the generalized inverse of G from B-inverse, IUseBI=4.
 Internal  Forces:  Max     0.007222703 RMS     0.002179984
 Search for a local minimum.
 Step number   2 out of a maximum of   57
 All quantities printed in internal units (Hartrees-Bohrs-Radians)
 Mixed Optimization -- RFO/linear search
 Update second derivatives using D2CorX and points    1    2
 DE= -4.89D-03 DEPred=-3.98D-03 R= 1.23D+00
 TightC=F SS=  1.41D+00  RLast= 1.43D-01 DXNew= 5.0454D-01 4.2939D-01
 Trust test= 1.23D+00 RLast= 1.43D-01 DXMaxT set to 4.29D-01
 ITU=  1  0
 Use linear search instead of GDIIS.
     Eigenvalues ---    0.01839   0.01843   0.01857   0.01873   0.01902
     Eigenvalues ---    0.01997   0.02049   0.02344   0.21965   0.25000
     Eigenvalues ---    0.25000   0.25000   0.25000   0.25000   0.25000
     Eigenvalues ---    0.25129   0.32025   0.37265   0.37885   0.38306
     Eigenvalues ---    0.38791   0.39780   0.41032   0.42230   0.42912
     Eigenvalues ---    0.49590   0.49967
 RFO step:  Lambda=-1.51954785D-04 EMin= 1.83894979D-02
 Quartic linear search produced a step of  0.37823.
 Iteration  1 RMS(Cart)=  0.00625057 RMS(Int)=  0.00003915
 Iteration  2 RMS(Cart)=  0.00005641 RMS(Int)=  0.00002096
 Iteration  3 RMS(Cart)=  0.00000000 RMS(Int)=  0.00002096
 ClnCor:  largest displacement from symmetrization is 3.86D-09 for atom     8.
 Variable       Old X    -DE/DX   Delta X   Delta X   Delta X     New X
                                 (Linear)    (Quad)   (Total)
    R1        2.65444  -0.00158  -0.00830   0.00250  -0.00583   2.64861
    R2        2.65444  -0.00158  -0.00830   0.00250  -0.00583   2.64861
    R3        3.24152   0.00387   0.01797  -0.00232   0.01565   3.25717
    R4        2.65682  -0.00259  -0.01060   0.00146  -0.00914   2.64768
    R5        3.23297   0.00481   0.01915  -0.00035   0.01881   3.25178
    R6        2.57734   0.00002  -0.00654   0.00635  -0.00016   2.57718
    R7        3.22935   0.00722   0.02272   0.00451   0.02722   3.25657
    R8        2.57734   0.00002  -0.00654   0.00635  -0.00016   2.57718
    R9        2.65682  -0.00259  -0.01060   0.00146  -0.00914   2.64768
   R10        3.22935   0.00722   0.02272   0.00450   0.02722   3.25657
   R11        3.23297   0.00481   0.01915  -0.00035   0.01881   3.25178
    A1        2.11531  -0.00033  -0.00311   0.00038  -0.00279   2.11252
    A2        2.08394   0.00016   0.00155  -0.00019   0.00140   2.08533
    A3        2.08394   0.00016   0.00155  -0.00019   0.00139   2.08533
    A4        2.08369  -0.00011   0.00004  -0.00100  -0.00099   2.08269
    A5        2.10965  -0.00042   0.00050  -0.00257  -0.00206   2.10760
    A6        2.08985   0.00053  -0.00053   0.00357   0.00305   2.09290
    A7        2.02890   0.00232   0.00816   0.00555   0.01373   2.04264
    A8        2.14016   0.00001  -0.00331   0.00297  -0.00036   2.13981
    A9        2.11412  -0.00233  -0.00485  -0.00852  -0.01338   2.10074
   A10        2.22589  -0.00409  -0.01328  -0.00949  -0.02269   2.20320
   A11        2.02890   0.00232   0.00816   0.00555   0.01373   2.04264
   A12        2.11412  -0.00233  -0.00485  -0.00852  -0.01338   2.10074
   A13        2.14016   0.00001  -0.00331   0.00297  -0.00036   2.13981
   A14        2.08369  -0.00011   0.00004  -0.00100  -0.00099   2.08269
   A15        2.10965  -0.00042   0.00050  -0.00257  -0.00206   2.10760
   A16        2.08985   0.00053  -0.00053   0.00357   0.00305   2.09290
    D1        0.00000   0.00000   0.00000   0.00000  -0.00000   0.00000
    D2        3.14159   0.00000   0.00000   0.00000   0.00000   3.14159
    D3        3.14159  -0.00000   0.00000  -0.00000   0.00000   3.14159
    D4        0.00000  -0.00000   0.00000   0.00000   0.00000   0.00000
    D5       -0.00000  -0.00000   0.00000  -0.00000   0.00000   0.00000
    D6        3.14159  -0.00000   0.00000  -0.00000   0.00000   3.14159
    D7        3.14159   0.00000   0.00000   0.00000   0.00000   3.14159
    D8        0.00000  -0.00000   0.00000  -0.00000   0.00000   0.00000
    D9       -0.00000  -0.00000   0.00000  -0.00000   0.00000   0.00000
   D10        3.14159  -0.00000   0.00000  -0.00000   0.00000   3.14159
   D11        3.14159  -0.00000   0.00000  -0.00000   0.00000   3.14159
   D12        0.00000  -0.00000   0.00000  -0.00000  -0.00000   0.00000
   D13        0.00000   0.00000   0.00000   0.00000  -0.00000   0.00000
   D14        3.14159  -0.00000   0.00000  -0.00000   0.00000   3.14159
   D15       -0.00000   0.00000   0.00000   0.00000   0.00000   0.00000
   D16        3.14159   0.00000   0.00000   0.00000   0.00000   3.14159
   D17        0.00000  -0.00000   0.00000  -0.00000   0.00000   0.00000
   D18        3.14159   0.00000   0.00000   0.00000   0.00000   3.14159
   D19        3.14159  -0.00000   0.00000  -0.00000   0.00000   3.14159
   D20       -0.00000  -0.00000   0.00000   0.00000   0.00000   0.00000
         Item               Value     Threshold  Converged?
 Maximum Force            0.007223     0.000450     NO 
 RMS     Force            0.002180     0.000300     NO 
 Maximum Displacement     0.016323     0.001800     NO 
 RMS     Displacement     0.006253     0.001200     NO 
 Predicted change in Energy=-4.382887D-04
 GradGradGradGradGradGradGradGradGradGradGradGradGradGradGradGradGradGrad

                          Input orientation:                          
 ---------------------------------------------------------------------
 Center     Atomic      Atomic             Coordinates (Angstroms)
 Number     Number       Type             X           Y           Z
 ---------------------------------------------------------------------
      1          6           0       -3.206815    0.198096    0.000000
      2          6           0       -2.019410    0.942744    0.000000
      3          6           0       -0.789017    0.272529    0.000000
      4          6           0       -0.825749   -1.090760   -0.000000
      5          6           0       -1.947103   -1.866949   -0.000000
      6          6           0       -3.181022   -1.203249   -0.000000
      7         17           0       -4.643315   -2.110294   -0.000000
      8         17           0       -4.722617    1.018590   -0.000000
      9         17           0       -2.059539    2.663041    0.000000
     10         17           0        0.720832    1.103272    0.000000
     11         17           0       -1.817085   -3.585342   -0.000000
 ---------------------------------------------------------------------
                    Distance matrix (angstroms):
                    1          2          3          4          5
     1  C    0.000000
     2  C    1.401582   0.000000
     3  C    2.418943   1.401090   0.000000
     4  C    2.707513   2.357958   1.363784   0.000000
     5  C    2.418943   2.810624   2.432803   1.363784   0.000000
     6  C    1.401582   2.440211   2.810624   2.357958   1.401090
     7  Cl   2.718859   4.025658   4.531386   3.951362   2.707171
     8  Cl   1.723620   2.704271   4.003725   4.431133   4.003725
     9  Cl   2.718859   1.720765   2.707171   3.951362   4.531386
    10  Cl   4.030602   2.744939   1.723304   2.684341   3.992504
    11  Cl   4.030602   4.532604   3.992504   2.684341   1.723304
                    6          7          8          9         10
     6  C    0.000000
     7  Cl   1.720765   0.000000
     8  Cl   2.704271   3.129889   0.000000
     9  Cl   4.025658   5.427765   3.129889   0.000000
    10  Cl   4.532604   6.253085   5.444107   3.188000   0.000000
    11  Cl   2.744939   3.188000   5.444107   6.253085   5.331427
                   11
    11  Cl   0.000000
 Stoichiometry    C6Cl5(2)
 Framework group  CS[SG(C6Cl5)]
 Deg. of freedom    19
 Full point group                 CS      NOp   2
 Largest Abelian subgroup         CS      NOp   2
 Largest concise Abelian subgroup C1      NOp   1
                         Standard orientation:                         
 ---------------------------------------------------------------------
 Center     Atomic      Atomic             Coordinates (Angstroms)
 Number     Number       Type             X           Y           Z
 ---------------------------------------------------------------------
      1          6           0        0.971147    0.000000   -0.000000
      2          6           0        0.281382   -1.220105   -0.000000
      3          6           0       -1.119703   -1.216402    0.000000
      4          6           0       -1.736367   -0.000000    0.000000
      5          6           0       -1.119703    1.216402    0.000000
      6          6           0        0.281382    1.220105   -0.000000
      7         17           0        1.135585    2.713882   -0.000000
      8         17           0        2.694766    0.000000   -0.000000
      9         17           0        1.135585   -2.713882   -0.000000
     10         17           0       -2.052051   -2.665714    0.000000
     11         17           0       -2.052051    2.665714    0.000000
 ---------------------------------------------------------------------
 Rotational constants (GHZ):           0.7037629           0.4665092           0.2805432
 Standard basis: 6-311++G(d,p) (5D, 7F)
 There are   217 symmetry adapted cartesian basis functions of A'  symmetry.
 There are    76 symmetry adapted cartesian basis functions of A"  symmetry.
 There are   206 symmetry adapted basis functions of A'  symmetry.
 There are    76 symmetry adapted basis functions of A"  symmetry.
   282 basis functions,   481 primitive gaussians,   293 cartesian basis functions
    61 alpha electrons       60 beta electrons
       nuclear repulsion energy      1056.5570412707 Hartrees.
 NAtoms=   11 NActive=   11 NUniq=   11 SFac= 1.00D+00 NAtFMM=   60 NAOKFM=F Big=F
 Integral buffers will be    131072 words long.
 Raffenetti 2 integral format.
 Two-electron integral symmetry is turned on.
 One-electron integrals computed using PRISM.
 NBasis=   282 RedAO= T EigKep=  2.19D-06  NBF=   206    76
 NBsUse=   280 1.00D-06 EigRej=  4.39D-07 NBFU=   204    76
 Initial guess from the checkpoint file:  "frequency_chks/123456-1234_6-ClBzNeutralRadical_Freq.chk"
 B after Tr=    -0.000000   -0.000000    0.000000
         Rot=    1.000000    0.000000    0.000000    0.000000 Ang=   0.00 deg.
 Initial guess orbital symmetries:
 Alpha Orbitals:
       Occupied  (A') (A') (A') (A') (A') (A') (A') (A') (A') (A')
                 (A') (A') (A') (A') (A') (A') (A') (A') (A') (A')
                 (A') (A") (A") (A') (A') (A") (A") (A') (A') (A")
                 (A') (A') (A') (A') (A') (A') (A') (A') (A') (A')
                 (A') (A') (A') (A') (A") (A') (A') (A') (A") (A")
                 (A") (A') (A") (A') (A') (A') (A") (A') (A') (A")
                 (A")
       Virtual   (A") (A") (A') (A') (A') (A') (A') (A') (A") (A')
                 (A') (A') (A") (A") (A') (A') (A') (A") (A") (A')
                 (A') (A") (A') (A') (A') (A") (A") (A') (A") (A')
                 (A') (A') (A") (A') (A') (A') (A") (A') (A') (A')
                 (A') (A") (A') (A') (A') (A') (A') (A') (A') (A')
                 (A') (A') (A') (A') (A') (A') (A") (A') (A') (A")
                 (A") (A') (A') (A') (A') (A') (A") (A") (A') (A')
                 (A") (A') (A") (A") (A') (A") (A") (A') (A') (A')
                 (A') (A") (A') (A') (A") (A') (A") (A') (A') (A")
                 (A') (A') (A") (A') (A") (A') (A') (A") (A") (A")
                 (A') (A') (A") (A') (A') (A') (A') (A') (A') (A")
                 (A') (A') (A') (A') (A") (A') (A') (A') (A') (A")
                 (A') (A') (A') (A") (A") (A') (A') (A") (A') (A")
                 (A') (A') (A') (A') (A') (A') (A") (A") (A') (A')
                 (A') (A") (A') (A") (A") (A') (A') (A') (A') (A")
                 (A") (A') (A") (A") (A") (A') (A') (A") (A') (A')
                 (A') (A') (A') (A') (A') (A') (A') (A") (A') (A')
                 (A") (A") (A") (A") (A') (A') (A") (A') (A') (A')
                 (A') (A') (A') (A') (A') (A') (A') (A') (A') (A')
                 (A') (A') (A') (A') (A') (A') (A') (A') (A') (A")
                 (A") (A") (A") (A") (A') (A') (A') (A') (A') (A')
                 (A') (A') (A') (A') (A') (A') (A') (A') (A')
 Beta  Orbitals:
       Occupied  (A') (A') (A') (A') (A') (A') (A') (A') (A') (A')
                 (A') (A') (A') (A') (A') (A') (A') (A') (A') (A')
                 (A') (A") (A") (A') (A') (A") (A") (A') (A') (A")
                 (A') (A') (A') (A') (A') (A') (A') (A') (A') (A')
                 (A') (A') (A') (A') (A") (A') (A') (A') (A") (A")
                 (A") (A') (A") (A') (A') (A') (A") (A') (A") (A")
       Virtual   (A') (A") (A") (A') (A') (A') (A') (A') (A') (A")
                 (A') (A') (A') (A") (A") (A') (A') (A') (A") (A")
                 (A') (A') (A") (A') (A') (A') (A") (A') (A') (A")
                 (A") (A') (A') (A") (A') (A') (A') (A") (A') (A')
                 (A') (A') (A") (A') (A') (A') (A') (A') (A') (A')
                 (A') (A') (A') (A') (A') (A') (A') (A') (A") (A')
                 (A") (A") (A') (A') (A') (A') (A') (A") (A") (A')
                 (A') (A") (A') (A') (A") (A") (A") (A") (A') (A')
                 (A') (A") (A') (A') (A') (A") (A') (A") (A') (A')
                 (A") (A') (A') (A") (A') (A") (A') (A') (A") (A")
                 (A") (A') (A") (A') (A') (A') (A') (A') (A') (A')
                 (A") (A') (A') (A') (A') (A") (A') (A') (A') (A')
                 (A') (A") (A') (A') (A") (A') (A') (A") (A') (A")
                 (A") (A') (A') (A') (A') (A') (A') (A") (A") (A')
                 (A') (A') (A") (A') (A") (A") (A') (A') (A') (A')
                 (A") (A") (A') (A") (A") (A") (A') (A') (A") (A')
                 (A') (A') (A') (A') (A') (A') (A') (A') (A") (A')
                 (A') (A") (A") (A") (A") (A') (A') (A") (A') (A')
                 (A') (A') (A') (A') (A') (A') (A') (A') (A') (A')
                 (A') (A') (A') (A') (A') (A') (A') (A') (A') (A')
                 (A") (A") (A") (A") (A") (A') (A') (A') (A') (A')
                 (A') (A') (A') (A') (A') (A') (A') (A') (A') (A')
 Initial guess <Sx>= 0.0000 <Sy>= 0.0000 <Sz>= 0.5000 <S**2>= 0.7635 S= 0.5067
 Requested convergence on RMS density matrix=1.00D-08 within 128 cycles.
 Requested convergence on MAX density matrix=1.00D-06.
 Requested convergence on             energy=1.00D-06.
 No special actions if energy rises.
 SCF Done:  E(UM062X) =  -2529.48989607     A.U. after   15 cycles
            NFock= 15  Conv=0.66D-08     -V/T= 2.0022
 <Sx>= 0.0000 <Sy>= 0.0000 <Sz>= 0.5000 <S**2>= 0.7636 S= 0.5068
 <L.S>=  0.00000000000    
 Annihilation of the first spin contaminant:
 S**2 before annihilation     0.7636,   after     0.7501
 Calling FoFJK, ICntrl=      2127 FMM=F ISym2X=1 I1Cent= 0 IOpClX= 1 NMat=1 NMatS=1 NMatT=0.
 ***** Axes restored to original set *****
 -------------------------------------------------------------------
 Center     Atomic                   Forces (Hartrees/Bohr)
 Number     Number              X              Y              Z
 -------------------------------------------------------------------
      1        6          -0.000882435    0.000477652    0.000000000
      2        6           0.000793022    0.000711383   -0.000000000
      3        6          -0.001585345    0.000535339    0.000000000
      4        6           0.001331955   -0.000720986    0.000000000
      5        6          -0.001315068    0.001034639   -0.000000000
      6        6          -0.000161999   -0.001052945    0.000000000
      7       17           0.000422434    0.000042726   -0.000000000
      8       17           0.000468011   -0.000253322   -0.000000000
      9       17           0.000195200   -0.000377056    0.000000000
     10       17           0.000587275    0.000208013   -0.000000000
     11       17           0.000146950   -0.000605443    0.000000000
 -------------------------------------------------------------------
 Cartesian Forces:  Max     0.001585345 RMS     0.000617682

 GradGradGradGradGradGradGradGradGradGradGradGradGradGradGradGradGradGrad
 Berny optimization.
 Using GEDIIS/GDIIS optimizer.
 FormGI is forming the generalized inverse of G from B-inverse, IUseBI=4.
 Internal  Forces:  Max     0.000682053 RMS     0.000321209
 Search for a local minimum.
 Step number   3 out of a maximum of   57
 All quantities printed in internal units (Hartrees-Bohrs-Radians)
 Mixed Optimization -- En-DIIS/RFO-DIIS
 Update second derivatives using D2CorX and points    1    2    3
 DE= -4.82D-04 DEPred=-4.38D-04 R= 1.10D+00
 TightC=F SS=  1.41D+00  RLast= 6.29D-02 DXNew= 7.2215D-01 1.8879D-01
 Trust test= 1.10D+00 RLast= 6.29D-02 DXMaxT set to 4.29D-01
 ITU=  1  1  0
 Use linear search instead of GDIIS.
     Eigenvalues ---    0.01839   0.01843   0.01857   0.01873   0.01902
     Eigenvalues ---    0.01995   0.02046   0.02339   0.19363   0.25000
     Eigenvalues ---    0.25000   0.25000   0.25000   0.25000   0.25043
     Eigenvalues ---    0.25250   0.32181   0.37287   0.37885   0.38538
     Eigenvalues ---    0.38791   0.39754   0.41352   0.42164   0.42911
     Eigenvalues ---    0.49945   0.50251
 RFO step:  Lambda=-1.32068066D-05 EMin= 1.83886042D-02
 Quartic linear search produced a step of  0.05134.
[...]
      8       17           0.000047528   -0.000025723   -0.000000000
      9       17           0.000020731   -0.000090471   -0.000000000
     10       17          -0.000052412   -0.000006205   -0.000000000
     11       17          -0.000023464    0.000047276   -0.000000000
 -------------------------------------------------------------------
 Cartesian Forces:  Max     0.000123379 RMS     0.000048552
 FormGI is forming the generalized inverse of G from B-inverse, IUseBI=4.

 GradGradGradGradGradGradGradGradGradGradGradGradGradGradGradGradGradGrad
 Berny optimization.
 Internal  Forces:  Max     0.000090908 RMS     0.000030262
 Search for a local minimum.
 Step number   1 out of a maximum of    2
 All quantities printed in internal units (Hartrees-Bohrs-Radians)
 Second derivative matrix not updated -- analytic derivatives used.
 ITU=  0
     Eigenvalues ---    0.01474   0.01522   0.01607   0.02441   0.02845
     Eigenvalues ---    0.02916   0.03647   0.03814   0.14881   0.15377
     Eigenvalues ---    0.16899   0.17096   0.18977   0.19852   0.23356
     Eigenvalues ---    0.26044   0.26096   0.27231   0.28046   0.30566
     Eigenvalues ---    0.30931   0.40988   0.46405   0.48193   0.49816
     Eigenvalues ---    0.51820   0.52432
 Angle between quadratic step and forces=  18.02 degrees.
 Linear search not attempted -- first point.
 Iteration  1 RMS(Cart)=  0.00012041 RMS(Int)=  0.00000001
 Iteration  2 RMS(Cart)=  0.00000001 RMS(Int)=  0.00000000
 ClnCor:  largest displacement from symmetrization is 1.07D-15 for atom    11.
 Variable       Old X    -DE/DX   Delta X   Delta X   Delta X     New X
                                 (Linear)    (Quad)   (Total)
    R1        2.65008   0.00004   0.00000   0.00012   0.00012   2.65020
    R2        2.65008   0.00004   0.00000   0.00012   0.00012   2.65020
    R3        3.25497  -0.00005   0.00000  -0.00021  -0.00021   3.25476
    R4        2.64617  -0.00002   0.00000   0.00002   0.00002   2.64619
    R5        3.25044  -0.00009   0.00000  -0.00036  -0.00036   3.25008
    R6        2.57867  -0.00005   0.00000  -0.00011  -0.00011   2.57856
    R7        3.25978  -0.00005   0.00000  -0.00016  -0.00016   3.25962
    R8        2.57867  -0.00005   0.00000  -0.00011  -0.00011   2.57856
    R9        2.64617  -0.00002   0.00000   0.00002   0.00002   2.64619
   R10        3.25978  -0.00005   0.00000  -0.00016  -0.00016   3.25962
   R11        3.25044  -0.00009   0.00000  -0.00036  -0.00036   3.25008
    A1        2.11210  -0.00002   0.00000   0.00001   0.00001   2.11211
    A2        2.08554   0.00001   0.00000  -0.00001  -0.00001   2.08554
    A3        2.08554   0.00001   0.00000  -0.00001  -0.00001   2.08554
    A4        2.08207  -0.00001   0.00000  -0.00007  -0.00007   2.08200
    A5        2.10856   0.00004   0.00000   0.00010   0.00010   2.10866
    A6        2.09256  -0.00002   0.00000  -0.00003  -0.00003   2.09253
    A7        2.04564   0.00001   0.00000   0.00001   0.00001   2.04565
    A8        2.13991  -0.00004   0.00000  -0.00016  -0.00016   2.13975
    A9        2.09764   0.00003   0.00000   0.00014   0.00014   2.09778
   A10        2.19887   0.00002   0.00000   0.00010   0.00010   2.19897
   A11        2.04564   0.00001   0.00000   0.00001   0.00001   2.04565
   A12        2.09764   0.00003   0.00000   0.00014   0.00014   2.09778
   A13        2.13991  -0.00004   0.00000  -0.00016  -0.00016   2.13975
   A14        2.08207  -0.00001   0.00000  -0.00007  -0.00007   2.08200
   A15        2.10856   0.00004   0.00000   0.00010   0.00010   2.10866
   A16        2.09256  -0.00002   0.00000  -0.00003  -0.00003   2.09253
    D1        0.00000   0.00000   0.00000  -0.00000   0.00000   0.00000
    D2        3.14159   0.00000   0.00000   0.00000   0.00000   3.14159
    D3        3.14159  -0.00000   0.00000   0.00000   0.00000   3.14159
    D4        0.00000   0.00000   0.00000   0.00000   0.00000   0.00000
    D5        0.00000   0.00000   0.00000   0.00000   0.00000   0.00000
    D6        3.14159  -0.00000   0.00000  -0.00000   0.00000   3.14159
    D7        3.14159   0.00000   0.00000  -0.00000   0.00000   3.14159
    D8        0.00000   0.00000   0.00000  -0.00000   0.00000   0.00000
    D9        0.00000  -0.00000   0.00000   0.00000   0.00000   0.00000
   D10        3.14159   0.00000   0.00000  -0.00000   0.00000   3.14159
   D11        3.14159  -0.00000   0.00000   0.00000   0.00000   3.14159
   D12        0.00000   0.00000   0.00000  -0.00000   0.00000   0.00000
   D13        0.00000   0.00000   0.00000  -0.00000   0.00000   0.00000
   D14        3.14159  -0.00000   0.00000  -0.00000   0.00000   3.14159
   D15        0.00000  -0.00000   0.00000   0.00000   0.00000   0.00000
   D16        3.14159   0.00000   0.00000   0.00000   0.00000   3.14159
   D17        0.00000   0.00000   0.00000  -0.00000   0.00000   0.00000
   D18        3.14159   0.00000   0.00000  -0.00000   0.00000   3.14159
   D19        3.14159   0.00000   0.00000   0.00000   0.00000   3.14159
   D20        0.00000  -0.00000   0.00000   0.00000   0.00000   0.00000
         Item               Value     Threshold  Converged?
 Maximum Force            0.000091     0.000450     YES
 RMS     Force            0.000030     0.000300     YES
 Maximum Displacement     0.000389     0.001800     YES
 RMS     Displacement     0.000120     0.001200     YES
 Predicted change in Energy=-7.281811D-08
 Optimization completed.
    -- Stationary point found.
                           ----------------------------
                           !   Optimized Parameters   !
                           ! (Angstroms and Degrees)  !
 --------------------------                            --------------------------
 ! Name  Definition              Value          Derivative Info.                !
 --------------------------------------------------------------------------------
 ! R1    R(1,2)                  1.4024         -DE/DX =    0.0                 !
 ! R2    R(1,6)                  1.4024         -DE/DX =    0.0                 !
 ! R3    R(1,8)                  1.7225         -DE/DX =   -0.0001              !
 ! R4    R(2,3)                  1.4003         -DE/DX =    0.0                 !
 ! R5    R(2,9)                  1.7201         -DE/DX =   -0.0001              !
 ! R6    R(3,4)                  1.3646         -DE/DX =    0.0                 !
 ! R7    R(3,10)                 1.725          -DE/DX =    0.0                 !
 ! R8    R(4,5)                  1.3646         -DE/DX =    0.0                 !
 ! R9    R(5,6)                  1.4003         -DE/DX =    0.0                 !
 ! R10   R(5,11)                 1.725          -DE/DX =    0.0                 !
 ! R11   R(6,7)                  1.7201         -DE/DX =   -0.0001              !
 ! A1    A(2,1,6)              121.0142         -DE/DX =    0.0                 !
 ! A2    A(2,1,8)              119.4929         -DE/DX =    0.0                 !
 ! A3    A(6,1,8)              119.4929         -DE/DX =    0.0                 !
 ! A4    A(1,2,3)              119.2936         -DE/DX =    0.0                 !
 ! A5    A(1,2,9)              120.8117         -DE/DX =    0.0                 !
 ! A6    A(3,2,9)              119.8947         -DE/DX =    0.0                 !
 ! A7    A(2,3,4)              117.2064         -DE/DX =    0.0                 !
 ! A8    A(2,3,10)             122.6077         -DE/DX =    0.0                 !
 ! A9    A(4,3,10)             120.1858         -DE/DX =    0.0                 !
 ! A10   A(3,4,5)              125.9857         -DE/DX =    0.0                 !
 ! A11   A(4,5,6)              117.2064         -DE/DX =    0.0                 !
 ! A12   A(4,5,11)             120.1858         -DE/DX =    0.0                 !
 ! A13   A(6,5,11)             122.6077         -DE/DX =    0.0                 !
 ! A14   A(1,6,5)              119.2936         -DE/DX =    0.0                 !
 ! A15   A(1,6,7)              120.8117         -DE/DX =    0.0                 !
 ! A16   A(5,6,7)              119.8947         -DE/DX =    0.0                 !
 ! D1    D(6,1,2,3)              0.0            -DE/DX =    0.0                 !
 ! D2    D(6,1,2,9)            180.0            -DE/DX =    0.0                 !
 ! D3    D(8,1,2,3)            180.0            -DE/DX =    0.0                 !
 ! D4    D(8,1,2,9)              0.0            -DE/DX =    0.0                 !
 ! D5    D(2,1,6,5)              0.0            -DE/DX =    0.0                 !
 ! D6    D(2,1,6,7)            180.0            -DE/DX =    0.0                 !
 ! D7    D(8,1,6,5)            180.0            -DE/DX =    0.0                 !
 ! D8    D(8,1,6,7)              0.0            -DE/DX =    0.0                 !
 ! D9    D(1,2,3,4)              0.0            -DE/DX =    0.0                 !
 ! D10   D(1,2,3,10)           180.0            -DE/DX =    0.0                 !
 ! D11   D(9,2,3,4)            180.0            -DE/DX =    0.0                 !
 ! D12   D(9,2,3,10)             0.0            -DE/DX =    0.0                 !
 ! D13   D(2,3,4,5)              0.0            -DE/DX =    0.0                 !
 ! D14   D(10,3,4,5)           180.0            -DE/DX =    0.0                 !
 ! D15   D(3,4,5,6)              0.0            -DE/DX =    0.0                 !
 ! D16   D(3,4,5,11)           180.0            -DE/DX =    0.0                 !
 ! D17   D(4,5,6,1)              0.0            -DE/DX =    0.0                 !
 ! D18   D(4,5,6,7)            180.0            -DE/DX =    0.0                 !
 ! D19   D(11,5,6,1)           180.0            -DE/DX =    0.0                 !
 ! D20   D(11,5,6,7)             0.0            -DE/DX =    0.0                 !
 --------------------------------------------------------------------------------
 GradGradGradGradGradGradGradGradGradGradGradGradGradGradGradGradGradGrad


 ----------------------------------------------------------------------

 Electric dipole moment (input orientation):
 (Debye = 10**-18 statcoulomb cm , SI units = C m)
                  (au)            (Debye)         (10**-30 SI)
   Tot        0.451089D-01      0.114655D+00      0.382449D+00
   x          0.396701D-01      0.100831D+00      0.336337D+00
   y         -0.214732D-01     -0.545793D-01     -0.182057D+00
   z          0.000000D+00      0.000000D+00      0.000000D+00

 Dipole polarizability, Alpha (input orientation).
 (esu units = cm**3 , SI units = C**2 m**2 J**-1)
 Alpha(0;0):
               (au)            (10**-24 esu)      (10**-40 SI)
   iso        0.127699D+03      0.189230D+02      0.210546D+02
   aniso      0.936563D+02      0.138784D+02      0.154418D+02
   xx         0.150623D+03      0.223201D+02      0.248344D+02
   yx         0.112113D+02      0.166134D+01      0.184849D+01
   yy         0.165267D+03      0.244900D+02      0.272488D+02
   zx         0.000000D+00      0.000000D+00      0.000000D+00
   zy         0.000000D+00      0.000000D+00      0.000000D+00
   zz         0.672057D+02      0.995886D+01      0.110807D+02

 ----------------------------------------------------------------------

 Dipole orientation:
     6         -1.21650613         -2.24740559         -5.51006864
     6         -0.11846283         -0.21885136         -4.20539288
     6         -0.12284471         -0.22694656         -1.55923393
     6         -1.21650624         -2.24740578         -0.38825617
     6         -2.31016772         -4.26786490         -1.55923412
     6         -2.31454949         -4.27595991         -4.20539307
    17         -3.65864860         -6.75908414         -5.81562180
    17         -1.21650609         -2.24740551         -8.76503851
    17          1.22563636          2.26427301         -5.81562133
    17          1.18140381          2.18255662          0.20695303
    17         -3.61441630         -6.67736820          0.20695263

 Electric dipole moment (dipole orientation):
 (Debye = 10**-18 statcoulomb cm , SI units = C m)
                  (au)            (Debye)         (10**-30 SI)
   Tot        0.451089D-01      0.114655D+00      0.382449D+00
   x          0.000000D+00      0.000000D+00      0.000000D+00
   y          0.000000D+00      0.000000D+00      0.000000D+00
   z          0.451089D-01      0.114655D+00      0.382449D+00

 Dipole polarizability, Alpha (dipole orientation).
 (esu units = cm**3 , SI units = C**2 m**2 J**-1)
 Alpha(0;0):
               (au)            (10**-24 esu)      (10**-40 SI)
   iso        0.127699D+03      0.189230D+02      0.210546D+02
   aniso      0.936563D+02      0.138784D+02      0.154418D+02
   xx         0.908019D+02      0.134555D+02      0.149712D+02
   yx         0.435922D+02      0.645969D+01      0.718738D+01
   yy         0.147739D+03      0.218927D+02      0.243589D+02
   zx         0.000000D+00      0.000000D+00      0.000000D+00
   zy         0.000000D+00      0.000000D+00      0.000000D+00
   zz         0.144555D+03      0.214208D+02      0.238338D+02

 ----------------------------------------------------------------------
 1\1\GINC-SH02-02N47\Freq\UM062X\6-311++G(d,p)\C6Cl5(2)\JLAPIER\10-Dec-
 2025\0\\#N Geom=AllCheck Guess=TCheck SCRF=Check GenChk UM062X/6-311++
 G(d,p) Freq\\Neutral Radical (removed 5) 1234_6\\0,2\C,-3.207989844,0.
 1987321,0.\C,-2.0197682127,0.9435438251,0.\C,-0.7906335029,0.272682201
 2,0.\C,-0.8244316932,-1.0914726662,0.\C,-1.9481150816,-1.8656796495,0.
 \C,-3.1818873186,-1.2033855143,0.\Cl,-4.6425124714,-2.1117753307,0.\Cl
 ,-4.722768078,1.0186718313,0.\Cl,-2.0578599583,2.6631795184,0.\Cl,0.72
 1482527,1.1028269442,0.\Cl,-1.8163563677,-3.5856432622,0.\\Version=ES6
 4L-G16RevB.01\State=2-A'\HF=-2529.4899061\S2=0.763646\S2-1=0.\S2A=0.75
 0085\RMSD=4.066e-09\RMSF=4.855e-05\ZeroPoint=0.0403908\Thermal=0.05067
 76\Dipole=0.0396701,-0.0214732,0.\DipoleDeriv=0.639751,-0.5103827,0.,-
 0.5103827,-0.0268766,0.,0.,0.,-0.0050616,-0.2446169,-0.0119067,0.,0.00
 3375,0.9628393,0.,0.,0.,0.0003051,0.8665989,0.4053587,0.,0.4829042,0.1
 420319,0.,0.,0.,0.0243693,-0.2032609,-0.0290288,0.,-0.0290288,-0.24117
 63,0.,0.,0.,-0.0323018,-0.0479932,-0.1143851,0.,-0.1919306,1.056624,0.
 ,0.,0.,0.0243693,0.6057383,0.5587133,0.,0.5434317,0.1124841,0.,0.,0.,0
 .0003051,-0.5109406,-0.3581865,0.,-0.323207,-0.2023387,0.,0.,0.,-0.004
 9294,-0.4945997,0.2762531,0.,0.2762531,-0.1337765,0.,0.,0.,-0.0015634,
 0.017345,0.0217985,0.,-0.013181,-0.7306242,0.,0.,0.,-0.0049294,-0.6032
 749,-0.3005341,0.,-0.3155167,-0.1803296,0.,0.,0.,-0.0002817,-0.0247471
 ,0.0623002,0.,0.0772829,-0.7588573,0.,0.,0.,-0.0002817\Polar=150.62317
 76,11.2112978,165.2666191,0.,0.,67.2057136\Quadrupole=0.3172619,0.3618
 133,-0.6790751,0.0341096,0.,0.\PG=CS [SG(C6Cl5)]\NImag=0\\0.56294581,0
 .02668403,0.59779869,0.,0.,0.11011328,-0.23942123,-0.05103421,0.,0.608
 41688,-0.12610632,-0.15618088,0.,-0.00219815,0.55061859,0.,0.,-0.05314
 692,0.,0.,0.10801761,-0.05674538,-0.03484804,0.,-0.25390359,0.12630303
 ,0.,0.53148486,0.03307474,0.07327245,0.,0.04180329,-0.14049039,0.,-0.0
 0544422,0.63552542,0.,0.,0.00125670,0.,0.,-0.05793003,0.,0.,0.10952338
 ,-0.02270628,-0.03442859,0.,0.03964625,0.02079335,0.,-0.08244682,0.010
 93568,0.,0.42271719,-0.03442859,-0.06767458,0.,0.09341916,-0.03227522,
 0.,-0.01700517,-0.36710549,0.,0.15769096,0.62868249,0.,0.,0.00278745,0
 .,0.,0.00890538,0.,0.,-0.04858001,0.,0.,0.06609682,0.03521138,0.093128
 61,0.,-0.08536693,-0.00287826,0.,0.04163567,-0.08038821,0.,-0.27921918
 ,-0.11756972,0.,0.60940409,0.02520582,-0.01868431,0.,-0.00379552,0.002
 37581,0.,-0.03133139,-0.03132464,0.,-0.14551057,-0.17033315,0.,0.04544
 221,0.55760620,0.,0.,0.00125670,0.,0.,0.00612864,0.,0.,0.00045945,0.,0
 .,-0.04858001,0.,0.,0.10952337,-0.09997119,-0.03503619,0.,0.04246504,-
 0.02119600,0.,-0.02080230,0.03928673,0.,-0.06305986,-0.04628055,0.,-0.
 25135986,0.12796426,0.,0.56991189,0.04003592,-0.29563092,0.,-0.0880218
 6,-0.02886147,0.,0.03836946,-0.06218882,0.,0.02634526,0.07043088,0.,0.
 04346452,-0.14303412,0.,-0.02734447,0.58912360,0.,0.,-0.05314692,0.,0.
 ,-0.00147885,0.,0.,0.00612864,0.,0.,0.00890538,0.,0.,-0.05793003,0.,0.
 ,0.10801761,-0.01511949,-0.01140303,0.,0.00155301,0.00154238,0.,0.0015
 3571,-0.00035390,0.,-0.00326226,0.00424988,0.,-0.03955013,-0.02239194,
 0.,-0.15318658,-0.07212588,0.,0.21127515,-0.03180446,-0.02145333,0.,0.
 00381595,-0.00165706,0.,-0.00014828,-0.00007954,0.,0.00107529,0.000052
 91,0.,-0.00051486,0.00061878,0.,-0.07104846,-0.08227402,0.,0.09731392,
 0.11509944,0.,0.,0.00299608,0.,0.,0.00408201,0.,0.,-0.00144985,0.,0.,0
 .00401413,0.,0.,0.00416612,0.,0.,-0.02179437,0.,0.,0.01015014,-0.16154
 642,0.06648535,0.,-0.04044544,0.01882950,0.,0.00094107,-0.00436821,0.,
 -0.00153730,0.00109658,0.,0.00232432,-0.00108928,0.,-0.01829016,0.0124
 1497,0.,0.00282381,-0.00404783,0.,0.22357404,0.06648534,-0.07470774,0.
 ,-0.00205391,0.00211455,0.,-0.00199264,-0.00123978,0.,0.00109659,-0.00
 010501,0.,-0.00346485,-0.00262303,0.,0.03329837,-0.02004074,0.,0.00444
 986,-0.00925948,0.,-0.08907061,0.10723601,0.,0.,-0.02247605,0.,0.,0.00
 320525,0.,0.,0.00417408,0.,0.,-0.00115886,0.,0.,0.00417408,0.,0.,0.003
 20526,0.,0.,-0.00106540,0.,0.,0.01090807,0.00022127,-0.02178592,0.,-0.
 03792867,0.00422259,0.,-0.00090398,0.02472364,0.,-0.00337619,0.0010008
 9,0.,0.00063329,-0.00073762,0.,-0.00315041,0.00074430,0.,0.00005255,-0
 .00117595,0.,-0.00583086,-0.00969990,0.,0.05475129,-0.00138450,-0.0367
 9408,0.,0.00314517,-0.19753193,0.,0.00284656,-0.03802738,0.,0.00417547
 ,0.00016684,0.,-0.00094324,0.00082288,0.,-0.00152927,0.00304636,0.,-0.
 00066851,-0.00115201,0.,-0.00120221,-0.00060482,0.,-0.00490654,0.27162
 330,0.,0.,0.00299608,0.,0.,-0.02179437,0.,0.,0.00416612,0.,0.,0.004014
 13,0.,0.,-0.00144985,0.,0.,0.00408201,0.,0.,0.00017050,0.,0.,-0.001065
 40,0.,0.,0.01015014,0.00056786,0.00369551,0.,-0.03595261,-0.01953041,0
 .,-0.15756055,-0.05855914,0.,-0.01263849,-0.02267845,0.,0.00126768,0.0
 0251996,0.,-0.00053513,0.00032246,0.,-0.00163265,-0.00101173,0.,-0.001
 79358,-0.00025802,0.,-0.00457717,0.00031842,0.,0.21288655,0.00115751,-
 0.00197476,0.,0.00363603,0.00206996,0.,-0.07632894,-0.07079126,0.,-0.0
 3159070,-0.02165912,0.,0.00222994,-0.00205294,0.,-0.00074330,0.0012904
 4,0.,-0.00098869,-0.00045479,0.,0.00018176,0.00040207,0.,0.00748892,0.
 00064714,0.,0.09557426,0.09321454,0.,0.,0.00368180,0.,0.,0.00495245,0.
 ,0.,-0.02176150,0.,0.,0.00179778,0.,0.,0.00401303,0.,0.,-0.00094118,0.
 ,0.,0.00004036,0.,0.,0.00004948,0.,0.,-0.00130973,0.,0.,0.00975740,-0.
 00343632,-0.00145750,0.,0.00093729,0.00021829,0.,-0.00323470,-0.000710
 41,0.,0.00588293,-0.01949499,0.,-0.03498033,0.00372408,0.,-0.00202145,
 0.02579533,0.,-0.00448912,0.00754642,0.,-0.00021947,0.00120976,0.,0.00
 010887,0.00014864,0.,-0.00003192,-0.00061679,0.,0.04148422,0.00108050,
 0.00202944,0.,0.00128405,-0.00018198,0.,-0.00042039,0.00244943,0.,-0.0
 1058273,-0.04018054,0.,0.02149388,-0.19337148,0.,0.00262889,-0.0318612
 0,0.,0.00037593,0.00055910,0.,0.00076997,-0.00117203,0.,0.00012559,-0.
 00219631,0.,-0.00039286,-0.00069129,0.,-0.01636283,0.26461687,0.,0.,0.
 00368180,0.,0.,-0.00094118,0.,0.,0.00401303,0.,0.,0.00179778,0.,0.,-0.
 02176150,0.,0.,0.00495245,0.,0.,-0.00130973,0.,0.,0.00004948,0.,0.,0.0
 0004036,0.,0.,-0.00027988,0.,0.,0.00975740\\0.00007225,-0.00003911,0.,
 -0.00003690,-0.00012338,0.,-0.00004199,0.00004289,0.,0.00006185,-0.000
 03348,0.,-0.00005887,0.00001171,0.,0.00008312,0.00009836,0.,-0.0000870
 9,-0.00003211,0.,-0.00004753,0.00002572,0.,-0.00002073,0.00009047,0.,0
 .00005241,0.00000620,0.,0.00002346,-0.00004728,0.\\\@


 ACCORDING TO HEN3RY, LIFE IS MUCH LIKE A SEWER........
 YOU GET OUT OF IT JUST WHAT YOU PUT INTO IT...........
                         TOM LEHRER - (THE 3 IS SILENT)
 Job cpu time:       0 days  1 hours  5 minutes 57.4 seconds.
 Elapsed time:       0 days  0 hours 16 minutes 31.5 seconds.
 File lengths (MBytes):  RWF=    261 Int=      0 D2E=      0 Chk=     34 Scr=      1
 Normal termination of Gaussian 16 at Wed Dec 10 11:40:19 2025.
