 Entering Gaussian System, Link 0=g16
 Initial command:
 /share/software/user/restricted/gaussian/g16.B01/l1.exe "/home/users/jlapier/Chloroaromatics/Gau-27816.inp" -scrdir="/home/users/jlapier/Chloroaromatics/"
 Entering Link 1 = /share/software/user/restricted/gaussian/g16.B01/l1.exe PID=     27817.
  
 Copyright (c) 1988-2017, Gaussian, Inc.  All Rights Reserved.
  
 This is part of the Gaussian(R) 16 program.  It is based on
 the Gaussian(R) 09 system (copyright 2009, Gaussian, Inc.),
 the Gaussian(R) 03 system (copyright 2003, Gaussian, Inc.),
 the Gaussian(R) 98 system (copyright 1998, Gaussian, Inc.),
 the Gaussian(R) 94 system (copyright 1995, Gaussian, Inc.),
 the Gaussian 92(TM) system (copyright 1992, Gaussian, Inc.),
 the Gaussian 90(TM) system (copyright 1990, Gaussian, Inc.),
 the Gaussian 88(TM) system (copyright 1988, Gaussian, Inc.),
 the Gaussian 86(TM) system (copyright 1986, Carnegie Mellon
 University), and the Gaussian 82(TM) system (copyright 1983,
 Carnegie Mellon University). Gaussian is a federally registered
 trademark of Gaussian, Inc.
  
 This software contains proprietary and confidential information,
 including trade secrets, belonging to Gaussian, Inc.
  
 This software is provided under written license and may be
 used, copied, transmitted, or stored only in accord with that
 written license.
  
 The following legend is applicable only to US Government
 contracts under FAR:
  
                    RESTRICTED RIGHTS LEGEND
  
 Use, reproduction and disclosure by the US Government is
 subject to restrictions as set forth in subparagraphs (a)
 and (c) of the Commercial Computer Software - Restricted
 Rights clause in FAR 52.227-19.
  
 Gaussian, Inc.
 340 Quinnipiac St., Bldg. 40, Wallingford CT 06492
  
  
 ---------------------------------------------------------------
 Warning -- This program may not be used in any manner that
 competes with the business of Gaussian, Inc. or will provide
 assistance to any competitor of Gaussian, Inc.  The licensee
 of this program is prohibited from giving any competitor of
 Gaussian, Inc. access to this program.  By using this program,
 the user acknowledges that Gaussian, Inc. is engaged in the
 business of creating and licensing software in the field of
 computational chemistry and represents and warrants to the
 licensee that it is not a competitor of Gaussian, Inc. and that
 it will not use this program in any manner prohibited above.
 ---------------------------------------------------------------
  

 Cite this work as:
 Gaussian 16, Revision B.01,
 M. J. Frisch, G. W. Trucks, H. B. Schlegel, G. E. Scuseria, 
 M. A. Robb, J. R. Cheeseman, G. Scalmani, V. Barone, 
 G. A. Petersson, H. Nakatsuji, X. Li, M. Caricato, A. V. Marenich, 
 J. Bloino, B. G. Janesko, R. Gomperts, B. Mennucci, H. P. Hratchian, 
 J. V. Ortiz, A. F. Izmaylov, J. L. Sonnenberg, D. Williams-Young, 
 F. Ding, F. Lipparini, F. Egidi, J. Goings, B. Peng, A. Petrone, 
 T. Henderson, D. Ranasinghe, V. G. Zakrzewski, J. Gao, N. Rega, 
 G. Zheng, W. Liang, M. Hada, M. Ehara, K. Toyota, R. Fukuda, 
 J. Hasegawa, M. Ishida, T. Nakajima, Y. Honda, O. Kitao, H. Nakai, 
 T. Vreven, K. Throssell, J. A. Montgomery, Jr., J. E. Peralta, 
 F. Ogliaro, M. J. Bearpark, J. J. Heyd, E. N. Brothers, K. N. Kudin, 
 V. N. Staroverov, T. A. Keith, R. Kobayashi, J. Normand, 
 K. Raghavachari, A. P. Rendell, J. C. Burant, S. S. Iyengar, 
 J. Tomasi, M. Cossi, J. M. Millam, M. Klene, C. Adamo, R. Cammi, 
 J. W. Ochterski, R. L. Martin, K. Morokuma, O. Farkas, 
 J. B. Foresman, and D. J. Fox, Gaussian, Inc., Wallingford CT, 2016.
 
 ******************************************
 Gaussian 16:  ES64L-G16RevB.01 20-Dec-2017
                10-Dec-2025 
 ******************************************
 %mem=8GB
 %nprocshare=4
 Will use up to    4 processors via shared memory.
 %oldchk=geometry_chks/12345-1234_-ClBzNeutralRadical.chk
 %chk=frequency_chks/12345-1234_-ClBzNeutralRadical_Freq.chk
 Copying data from "geometry_chks/12345-1234_-ClBzNeutralRadical.chk" to current chk file "frequency_chks/12345-1234_-ClBzNeutralRadical_Freq.chk"
 IOpt=  2 FromEx=T IUOpen= 4 IOptOp= 5 NList=   0 IFRang= 0 IUIn= 4 IUOut= 2.
 -------------------------------------------------------
 # opt freq 6-311++g(d,p) guess=read geom=allcheck m062x
 -------------------------------------------------------
 1/18=20,19=15,26=3,29=7,38=1/1,3;
 2/9=110,12=2,40=1/2;
 3/5=4,6=6,7=1111,11=2,14=-4,25=1,30=1,71=1,74=-55,116=-2/1,2,3;
 4/5=1/1;
 5/5=2,38=6/2;
 6/7=2,8=2,9=2,10=2,28=1/1;
 7//1,2,3,16;
 1/18=20,19=15,26=3/3(2);
 2/9=110/2;
 99//99;
 2/9=110/2;
 3/5=4,6=6,7=1111,11=2,14=-2,25=1,30=1,71=1,74=-55/1,2,3;
 4/5=5,16=3,69=1/1;
 5/5=2,38=5/2;
 7//1,2,3,16;
 1/18=20,19=15,26=3/3(-5);
 2/9=110/2;
 6/7=2,8=2,9=2,10=2,19=2,28=1/1;
 99/9=1/99;
 Structure from the checkpoint file:  "frequency_chks/12345-1234_-ClBzNeutralRadical_Freq.chk"
 ---------------------------------
 Neutral Radical (removed 5) 1234_
 ---------------------------------
 Charge =  0 Multiplicity = 2
 Redundant internal coordinates found in file.  (old form).
 C,0,-3.2102243217,0.1536122171,0.
 C,0,-2.0122284432,0.9090699619,0.
 C,0,-0.7616270978,0.2354894792,0.
 C,0,-0.8429489706,-1.1376624649,0.
 C,0,-1.9450795947,-1.9451085595,0.
 C,0,-3.1833330385,-1.2616448545,0.
 Cl,0,-4.6099885343,-2.1628209488,0.
 Cl,0,-4.6975460532,0.9570244358,0.
 Cl,0,-2.0566326475,2.5936706005,0.
 Cl,0,0.7101700682,1.0411635839,0.
 H,0,-1.8814013665,-3.0411134507,0.
 Recover connectivity data from disk.

 GradGradGradGradGradGradGradGradGradGradGradGradGradGradGradGradGradGrad
 Berny optimization.
 Initialization pass.
                           ----------------------------
                           !    Initial Parameters    !
                           ! (Angstroms and Degrees)  !
 --------------------------                            --------------------------
 ! Name  Definition              Value          Derivative Info.                !
 --------------------------------------------------------------------------------
 ! R1    R(1,2)                  1.4163         estimate D2E/DX2                !
 ! R2    R(1,6)                  1.4155         estimate D2E/DX2                !
 ! R3    R(1,8)                  1.6904         estimate D2E/DX2                !
 ! R4    R(2,3)                  1.4205         estimate D2E/DX2                !
 ! R5    R(2,9)                  1.6852         estimate D2E/DX2                !
 ! R6    R(3,4)                  1.3756         estimate D2E/DX2                !
 ! R7    R(3,10)                 1.6779         estimate D2E/DX2                !
 ! R8    R(4,5)                  1.3663         estimate D2E/DX2                !
 ! R9    R(5,6)                  1.4144         estimate D2E/DX2                !
 ! R10   R(5,11)                 1.0979         estimate D2E/DX2                !
 ! R11   R(6,7)                  1.6874         estimate D2E/DX2                !
 ! A1    A(2,1,6)              121.147          estimate D2E/DX2                !
 ! A2    A(2,1,8)              119.3877         estimate D2E/DX2                !
 ! A3    A(6,1,8)              119.4653         estimate D2E/DX2                !
 ! A4    A(1,2,3)              119.4573         estimate D2E/DX2                !
 ! A5    A(1,2,9)              120.7257         estimate D2E/DX2                !
 ! A6    A(3,2,9)              119.817          estimate D2E/DX2                !
 ! A7    A(2,3,4)              114.9179         estimate D2E/DX2                !
 ! A8    A(2,3,10)             122.9962         estimate D2E/DX2                !
 ! A9    A(4,3,10)             122.0859         estimate D2E/DX2                !
 ! A10   A(3,4,5)              129.6166         estimate D2E/DX2                !
 ! A11   A(4,5,6)              114.8758         estimate D2E/DX2                !
 ! A12   A(4,5,11)             122.9022         estimate D2E/DX2                !
 ! A13   A(6,5,11)             122.222          estimate D2E/DX2                !
 ! A14   A(1,6,5)              119.9854         estimate D2E/DX2                !
 ! A15   A(1,6,7)              121.1908         estimate D2E/DX2                !
 ! A16   A(5,6,7)              118.8238         estimate D2E/DX2                !
 ! D1    D(6,1,2,3)              0.0            estimate D2E/DX2                !
 ! D2    D(6,1,2,9)            180.0            estimate D2E/DX2                !
 ! D3    D(8,1,2,3)            180.0            estimate D2E/DX2                !
 ! D4    D(8,1,2,9)              0.0            estimate D2E/DX2                !
 ! D5    D(2,1,6,5)              0.0            estimate D2E/DX2                !
 ! D6    D(2,1,6,7)            180.0            estimate D2E/DX2                !
 ! D7    D(8,1,6,5)            180.0            estimate D2E/DX2                !
 ! D8    D(8,1,6,7)              0.0            estimate D2E/DX2                !
 ! D9    D(1,2,3,4)              0.0            estimate D2E/DX2                !
 ! D10   D(1,2,3,10)           180.0            estimate D2E/DX2                !
 ! D11   D(9,2,3,4)            180.0            estimate D2E/DX2                !
 ! D12   D(9,2,3,10)             0.0            estimate D2E/DX2                !
 ! D13   D(2,3,4,5)              0.0            estimate D2E/DX2                !
 ! D14   D(10,3,4,5)           180.0            estimate D2E/DX2                !
 ! D15   D(3,4,5,6)              0.0            estimate D2E/DX2                !
 ! D16   D(3,4,5,11)           180.0            estimate D2E/DX2                !
 ! D17   D(4,5,6,1)              0.0            estimate D2E/DX2                !
 ! D18   D(4,5,6,7)            180.0            estimate D2E/DX2                !
 ! D19   D(11,5,6,1)           180.0            estimate D2E/DX2                !
 ! D20   D(11,5,6,7)             0.0            estimate D2E/DX2                !
 --------------------------------------------------------------------------------
 Trust Radius=3.00D-01 FncErr=1.00D-07 GrdErr=1.00D-06 EigMax=2.50D+02 EigMin=1.00D-04
 Number of steps in this run=     57 maximum allowed number of steps=    100.
 GradGradGradGradGradGradGradGradGradGradGradGradGradGradGradGradGradGrad

                          Input orientation:                          
 ---------------------------------------------------------------------
 Center     Atomic      Atomic             Coordinates (Angstroms)
 Number     Number       Type             X           Y           Z
 ---------------------------------------------------------------------
      1          6           0       -3.210224    0.153612   -0.000000
      2          6           0       -2.012228    0.909070    0.000000
      3          6           0       -0.761627    0.235489   -0.000000
      4          6           0       -0.842949   -1.137662   -0.000000
      5          6           0       -1.945080   -1.945109   -0.000000
      6          6           0       -3.183333   -1.261645   -0.000000
      7         17           0       -4.609989   -2.162821   -0.000000
      8         17           0       -4.697546    0.957024    0.000000
      9         17           0       -2.056633    2.593671    0.000000
     10         17           0        0.710170    1.041164    0.000000
     11          1           0       -1.881401   -3.041113   -0.000000
 ---------------------------------------------------------------------
                    Distance matrix (angstroms):
                    1          2          3          4          5
     1  C    0.000000
     2  C    1.416302   0.000000
     3  C    2.449966   1.420463   0.000000
     4  C    2.696550   2.357186   1.375558   0.000000
     5  C    2.450555   2.854968   2.481042   1.366258   0.000000
     6  C    1.415513   2.466473   2.847116   2.343666   1.414353
     7  Cl   2.706511   4.023043   4.534510   3.904041   2.673787
     8  Cl   1.690443   2.685746   4.001509   4.386984   3.999806
     9  Cl   2.699011   1.685186   2.690364   3.923758   4.540150
    10  Cl   4.019607   2.725601   1.677885   2.675717   3.996020
    11  H    3.460064   3.952349   3.462661   2.168296   1.097853
                    6          7          8          9         10
     6  C    0.000000
     7  Cl   1.687443   0.000000
     8  Cl   2.686137   3.121074   0.000000
     9  Cl   4.016580   5.398503   3.106933   0.000000
    10  Cl   4.523527   6.210443   5.408371   3.172613   0.000000
    11  H    2.204889   2.866459   4.890376   5.637508   4.835414
                   11
    11  H    0.000000
 Stoichiometry    C6HCl4(2)
 Framework group  CS[SG(C6HCl4)]
 Deg. of freedom    19
 Full point group                 CS      NOp   2
 Largest Abelian subgroup         CS      NOp   2
 Largest concise Abelian subgroup C1      NOp   1
                         Standard orientation:                         
 ---------------------------------------------------------------------
 Center     Atomic      Atomic             Coordinates (Angstroms)
 Number     Number       Type             X           Y           Z
 ---------------------------------------------------------------------
      1          6           0       -0.000000   -0.785060    0.000000
      2          6           0       -0.698743    0.446877    0.000000
      3          6           0        0.032450    1.664691   -0.000000
      4          6           0        1.400312    1.519394   -0.000000
      5          6           0        2.155460    0.380793   -0.000000
      6          6           0        1.414971   -0.824226   -0.000000
      7         17           0        2.248606   -2.291372   -0.000000
      8         17           0       -0.871927   -2.233280    0.000000
      9         17           0       -2.383581    0.481115    0.000000
     10         17           0       -0.703681    3.172473    0.000000
     11          1           0        3.253242    0.393268   -0.000000
 ---------------------------------------------------------------------
 Rotational constants (GHZ):           1.1990651           0.5514337           0.3777237
 Standard basis: 6-311++G(d,p) (5D, 7F)
 There are   200 symmetry adapted cartesian basis functions of A'  symmetry.
 There are    69 symmetry adapted cartesian basis functions of A"  symmetry.
 There are   190 symmetry adapted basis functions of A'  symmetry.
 There are    69 symmetry adapted basis functions of A"  symmetry.
   259 basis functions,   437 primitive gaussians,   269 cartesian basis functions
    53 alpha electrons       52 beta electrons
       nuclear repulsion energy       838.5576700745 Hartrees.
 NAtoms=   11 NActive=   11 NUniq=   11 SFac= 1.00D+00 NAtFMM=   60 NAOKFM=F Big=F
 Integral buffers will be    131072 words long.
 Raffenetti 2 integral format.
 Two-electron integral symmetry is turned on.
 One-electron integrals computed using PRISM.
 NBasis=   259 RedAO= T EigKep=  3.53D-06  NBF=   190    69
 NBsUse=   257 1.00D-06 EigRej=  8.64D-07 NBFU=   188    69
 Initial guess from the checkpoint file:  "frequency_chks/12345-1234_-ClBzNeutralRadical_Freq.chk"
 B after Tr=    -0.000000   -0.000000   -0.000000
         Rot=    1.000000   -0.000000    0.000000    0.000000 Ang=   0.00 deg.
 Initial guess orbital symmetries:
 Alpha Orbitals:
       Occupied  (A') (A') (A') (A') (A') (A') (A') (A') (A') (A')
                 (A') (A') (A') (A") (A') (A') (A") (A") (A") (A')
                 (A') (A') (A") (A') (A') (A") (A") (A") (A") (A')
                 (A') (A') (A') (A") (A') (A') (A') (A') (A') (A')
                 (A') (A') (A') (A') (A') (A') (A') (A') (A') (A')
                 (A') (A') (A')
       Virtual   (A') (A') (A') (A') (A') (A') (A') (A') (A') (A')
                 (A') (A') (A') (A') (A') (A') (A') (A') (A') (A')
                 (A') (A') (A') (A') (A') (A') (A') (A') (A') (A')
                 (A') (A') (A') (A') (A') (A') (A') (A') (A') (A')
                 (A') (A') (A') (A') (A') (A') (A') (A') (A') (A')
                 (A') (A') (A') (A') (A') (A') (A') (A') (A') (A')
                 (A') (A') (A') (A') (A') (A') (A') (A') (A') (A')
                 (A') (A') (A') (A') (A') (A') (A') (A') (A') (A')
                 (A') (A') (A') (A') (A') (A') (A') (A') (A') (A')
                 (A') (A') (A') (A') (A') (A') (A') (A') (A') (A')
                 (A') (A') (A') (A') (A') (A') (A') (A') (A') (A')
                 (A') (A') (A') (A') (A') (A') (A') (A') (A') (A')
                 (A') (A') (A') (A') (A') (A') (A') (A') (A') (A')
                 (A') (A') (A') (A') (A') (A') (A') (A') (A') (A')
                 (A') (A') (A') (A') (A') (A") (A") (A") (A") (A")
                 (A") (A") (A") (A") (A") (A") (A") (A") (A") (A")
                 (A") (A") (A") (A") (A") (A") (A") (A") (A") (A")
                 (A") (A") (A") (A") (A") (A") (A") (A") (A") (A")
                 (A") (A") (A") (A") (A") (A") (A") (A") (A") (A")
                 (A") (A") (A") (A") (A") (A") (A") (A") (A") (A")
                 (A") (A") (A") (A")
 Beta  Orbitals:
       Occupied  (A') (A') (A') (A') (A') (A') (A') (A') (A') (A')
                 (A') (A') (A') (A") (A') (A") (A') (A") (A") (A')
                 (A') (A') (A') (A") (A") (A") (A') (A") (A") (A')
                 (A') (A') (A') (A") (A') (A') (A') (A') (A') (A')
                 (A') (A') (A') (A') (A') (A') (A') (A') (A') (A')
                 (A') (A')
       Virtual   (A') (A') (A') (A') (A') (A') (A') (A') (A') (A')
                 (A') (A') (A') (A') (A') (A') (A') (A') (A') (A')
                 (A') (A') (A') (A') (A') (A') (A') (A') (A') (A')
                 (A') (A') (A') (A') (A') (A') (A') (A') (A') (A')
                 (A') (A') (A') (A') (A') (A') (A') (A') (A') (A')
                 (A') (A') (A') (A') (A') (A') (A') (A') (A') (A')
                 (A') (A') (A') (A') (A') (A') (A') (A') (A') (A')
                 (A') (A') (A') (A') (A') (A') (A') (A') (A') (A')
                 (A') (A') (A') (A') (A') (A') (A') (A') (A') (A')
                 (A') (A') (A') (A') (A') (A') (A') (A') (A') (A')
                 (A') (A') (A') (A') (A') (A') (A') (A') (A') (A')
                 (A') (A') (A') (A') (A') (A') (A') (A') (A') (A')
                 (A') (A') (A') (A') (A') (A') (A') (A') (A') (A')
                 (A') (A') (A') (A') (A') (A') (A') (A') (A') (A')
                 (A') (A') (A') (A') (A') (A') (A") (A") (A") (A")
                 (A") (A") (A") (A") (A") (A") (A") (A") (A") (A")
                 (A") (A") (A") (A") (A") (A") (A") (A") (A") (A")
                 (A") (A") (A") (A") (A") (A") (A") (A") (A") (A")
                 (A") (A") (A") (A") (A") (A") (A") (A") (A") (A")
                 (A") (A") (A") (A") (A") (A") (A") (A") (A") (A")
                 (A") (A") (A") (A") (A")
 Initial guess <Sx>= 0.0000 <Sy>= 0.0000 <Sz>= 0.5000 <S**2>= 0.7500 S= 0.5000
 Keep R1 and R2 ints in memory in symmetry-blocked form, NReq=892001928.
 Requested convergence on RMS density matrix=1.00D-08 within 128 cycles.
 Requested convergence on MAX density matrix=1.00D-06.
 Requested convergence on             energy=1.00D-06.
 No special actions if energy rises.
 EnCoef did     4 forward-backward iterations
 SCF Done:  E(UM062X) =  -2069.89281976     A.U. after   27 cycles
            NFock= 27  Conv=0.74D-08     -V/T= 2.0022
 <Sx>= 0.0000 <Sy>= 0.0000 <Sz>= 0.5000 <S**2>= 0.7634 S= 0.5067
 <L.S>=  0.00000000000    
 Annihilation of the first spin contaminant:
 S**2 before annihilation     0.7634,   after     0.7501

 **********************************************************************

            Population analysis using the SCF Density.

 **********************************************************************

 Orbital symmetries:
 Alpha Orbitals:
       Occupied  (A') (A') (A') (A') (A') (A') (A') (A') (A') (A')
                 (A') (A') (A') (A') (A') (A') (A') (A') (A") (A')
                 (A") (A') (A") (A') (A") (A') (A') (A') (A') (A')
                 (A') (A') (A') (A') (A') (A') (A') (A') (A') (A")
                 (A') (A') (A") (A") (A') (A") (A') (A') (A") (A')
                 (A') (A") (A")
       Virtual   (A") (A") (A') (A') (A') (A') (A') (A') (A") (A')
                 (A') (A") (A") (A') (A') (A') (A") (A') (A") (A')
                 (A") (A') (A') (A') (A') (A") (A") (A') (A') (A")
                 (A') (A') (A") (A') (A') (A') (A') (A") (A') (A')
                 (A') (A') (A') (A') (A') (A') (A') (A') (A') (A')
                 (A') (A') (A') (A") (A') (A") (A') (A') (A") (A')
                 (A') (A") (A') (A') (A") (A') (A') (A") (A") (A')
                 (A") (A") (A') (A') (A') (A') (A") (A') (A') (A")
                 (A') (A') (A") (A') (A') (A") (A') (A') (A') (A")
                 (A") (A") (A") (A') (A') (A') (A') (A') (A') (A')
                 (A') (A") (A") (A') (A') (A') (A') (A") (A') (A')
                 (A') (A') (A') (A") (A') (A") (A') (A") (A") (A')
                 (A') (A') (A') (A") (A') (A') (A') (A") (A') (A')
                 (A') (A") (A") (A") (A') (A') (A") (A') (A') (A')
                 (A") (A") (A') (A") (A") (A") (A') (A') (A') (A')
                 (A') (A') (A') (A') (A') (A') (A') (A") (A') (A')
                 (A") (A") (A") (A") (A') (A") (A') (A') (A') (A')
                 (A') (A') (A') (A') (A') (A') (A') (A') (A') (A')
                 (A') (A') (A') (A') (A') (A') (A') (A') (A") (A")
                 (A") (A") (A') (A') (A') (A') (A') (A') (A') (A')
                 (A') (A') (A') (A')
 Beta  Orbitals:
       Occupied  (A') (A') (A') (A') (A') (A') (A') (A') (A') (A')
                 (A') (A') (A') (A') (A') (A') (A') (A') (A") (A")
                 (A') (A') (A") (A') (A") (A') (A') (A') (A') (A')
                 (A') (A') (A') (A') (A') (A') (A') (A') (A') (A")
                 (A') (A') (A") (A") (A") (A') (A') (A') (A") (A')
                 (A") (A")
       Virtual   (A') (A") (A") (A') (A') (A') (A') (A') (A') (A")
                 (A') (A') (A") (A") (A') (A') (A') (A") (A') (A")
                 (A') (A") (A') (A') (A') (A") (A') (A") (A') (A')
                 (A") (A') (A') (A") (A') (A') (A') (A') (A") (A')
                 (A') (A') (A') (A') (A') (A') (A') (A') (A') (A')
                 (A') (A') (A') (A') (A") (A') (A") (A') (A') (A")
                 (A') (A') (A") (A') (A') (A') (A") (A') (A") (A')
                 (A") (A") (A") (A') (A') (A') (A") (A') (A') (A')
                 (A") (A') (A') (A") (A') (A') (A") (A') (A') (A')
                 (A") (A") (A") (A') (A") (A') (A') (A') (A') (A')
                 (A') (A') (A") (A") (A') (A') (A') (A') (A") (A')
                 (A') (A') (A') (A') (A") (A') (A") (A') (A") (A")
                 (A') (A') (A') (A') (A") (A') (A') (A') (A") (A')
                 (A') (A') (A") (A") (A') (A") (A') (A") (A') (A')
                 (A') (A") (A") (A') (A") (A") (A") (A') (A') (A')
                 (A') (A') (A') (A') (A') (A') (A') (A') (A") (A')
                 (A') (A") (A") (A") (A") (A') (A") (A') (A') (A')
                 (A') (A') (A') (A') (A') (A') (A') (A') (A') (A')
                 (A') (A') (A') (A') (A') (A') (A') (A') (A') (A")
                 (A") (A") (A") (A') (A') (A') (A') (A') (A') (A')
                 (A') (A') (A') (A') (A')
 The electronic state is 2-A'.
 Alpha  occ. eigenvalues -- -102.70492-102.70458-102.70303-102.70111 -10.65411
 Alpha  occ. eigenvalues --  -10.65001 -10.64806 -10.64581 -10.61108 -10.59696
 Alpha  occ. eigenvalues --   -9.84830  -9.84790  -9.84647  -9.84462  -7.57370
 Alpha  occ. eigenvalues --   -7.57355  -7.57182  -7.56991  -7.56666  -7.56625
 Alpha  occ. eigenvalues --   -7.56603  -7.56594  -7.56484  -7.56450  -7.56281
 Alpha  occ. eigenvalues --   -7.56256  -1.07437  -1.03094  -1.00693  -0.97609
 Alpha  occ. eigenvalues --   -0.95084  -0.85270  -0.83396  -0.72272  -0.70265
 Alpha  occ. eigenvalues --   -0.61795  -0.60855  -0.56278  -0.54349  -0.54058
 Alpha  occ. eigenvalues --   -0.51886  -0.49836  -0.47908  -0.45556  -0.42558
 Alpha  occ. eigenvalues --   -0.42433  -0.41727  -0.40574  -0.40365  -0.38430
 Alpha  occ. eigenvalues --   -0.34258  -0.32536  -0.31191
 Alpha virt. eigenvalues --   -0.02948  -0.02000  -0.00040   0.00642   0.02266
 Alpha virt. eigenvalues --    0.03529   0.04027   0.04590   0.05034   0.06250
 Alpha virt. eigenvalues --    0.06440   0.07176   0.07898   0.08045   0.08506
 Alpha virt. eigenvalues --    0.09261   0.09808   0.10533   0.10819   0.11281
 Alpha virt. eigenvalues --    0.12052   0.12347   0.12693   0.13662   0.14889
 Alpha virt. eigenvalues --    0.14934   0.15518   0.15931   0.16638   0.16661
 Alpha virt. eigenvalues --    0.17390   0.18048   0.18242   0.19034   0.19711
 Alpha virt. eigenvalues --    0.20148   0.22380   0.22764   0.23104   0.23219
 Alpha virt. eigenvalues --    0.23813   0.25002   0.25637   0.26975   0.27469
 Alpha virt. eigenvalues --    0.28384   0.28834   0.29310   0.31306   0.31626
 Alpha virt. eigenvalues --    0.33132   0.42573   0.43256   0.44066   0.45759
 Alpha virt. eigenvalues --    0.46402   0.46584   0.48756   0.48810   0.49502
 Alpha virt. eigenvalues --    0.49810   0.50984   0.51007   0.52066   0.53685
 Alpha virt. eigenvalues --    0.53845   0.56980   0.58854   0.60702   0.61955
 Alpha virt. eigenvalues --    0.62797   0.63079   0.64466   0.65504   0.66516
 Alpha virt. eigenvalues --    0.68465   0.68851   0.70294   0.73106   0.76642
 Alpha virt. eigenvalues --    0.77688   0.82160   0.84115   0.86187   0.86607
 Alpha virt. eigenvalues --    0.87486   0.87772   0.88599   0.88999   0.89619
 Alpha virt. eigenvalues --    0.90678   0.91548   0.92537   0.92701   0.94096
 Alpha virt. eigenvalues --    0.96038   0.96442   0.96846   0.97960   0.98427
 Alpha virt. eigenvalues --    0.99716   1.00926   1.01254   1.02879   1.05965
 Alpha virt. eigenvalues --    1.08106   1.09348   1.13849   1.16599   1.22475
 Alpha virt. eigenvalues --    1.25765   1.26419   1.28348   1.28377   1.31552
 Alpha virt. eigenvalues --    1.32346   1.33822   1.35133   1.36383   1.40780
 Alpha virt. eigenvalues --    1.45102   1.49530   1.52171   1.60963   1.64075
 Alpha virt. eigenvalues --    1.70038   1.74661   1.78388   1.80430   1.84309
 Alpha virt. eigenvalues --    1.85524   1.86266   1.86657   1.92879   1.92951
 Alpha virt. eigenvalues --    2.00704   2.07684   2.10619   2.18459   2.23232
 Alpha virt. eigenvalues --    2.25714   2.27335   2.28757   2.28766   2.30436
 Alpha virt. eigenvalues --    2.34169   2.34279   2.36184   2.42354   2.43378
 Alpha virt. eigenvalues --    2.44998   2.49541   2.50646   2.55714   2.58642
 Alpha virt. eigenvalues --    2.62918   2.63990   2.65543   2.67453   2.72846
 Alpha virt. eigenvalues --    2.78405   2.81136   2.89779   2.91436   2.92215
 Alpha virt. eigenvalues --    3.09004   3.11600   3.13186   3.20375   3.24948
 Alpha virt. eigenvalues --    3.28796   3.38671   3.52520   3.69840   3.73753
 Alpha virt. eigenvalues --    3.94605   4.04835   4.74488   9.90312   9.98267
 Alpha virt. eigenvalues --    9.99891  10.01427  23.36363  23.82688  23.86689
 Alpha virt. eigenvalues --   23.96241  24.01263  24.19392  25.86224  25.89990
 Alpha virt. eigenvalues --   25.93581  26.00035  26.15812  26.19589  26.24857
 Alpha virt. eigenvalues --   26.30282  26.47836  26.67993  26.82320  26.97256
 Alpha virt. eigenvalues --  215.99621 216.08615 216.10624 216.12507
  Beta  occ. eigenvalues -- -102.70468-102.70426-102.70286-102.70118 -10.65336
  Beta  occ. eigenvalues --  -10.64908 -10.64830 -10.64620 -10.60124 -10.59725
  Beta  occ. eigenvalues --   -9.84821  -9.84776  -9.84641  -9.84464  -7.57329
  Beta  occ. eigenvalues --   -7.57277  -7.57150  -7.56990  -7.56650  -7.56609
  Beta  occ. eigenvalues --   -7.56606  -7.56564  -7.56470  -7.56440  -7.56302
  Beta  occ. eigenvalues --   -7.56258  -1.07151  -1.02919  -1.00379  -0.97532
  Beta  occ. eigenvalues --   -0.94169  -0.84753  -0.82391  -0.71707  -0.68960
  Beta  occ. eigenvalues --   -0.61082  -0.60077  -0.55696  -0.54043  -0.53797
  Beta  occ. eigenvalues --   -0.51239  -0.49347  -0.47848  -0.45250  -0.42443
  Beta  occ. eigenvalues --   -0.41713  -0.41643  -0.40311  -0.39668  -0.38369
  Beta  occ. eigenvalues --   -0.32130  -0.30815
  Beta virt. eigenvalues --   -0.08871  -0.02993  -0.00867   0.00035   0.00603
  Beta virt. eigenvalues --    0.02355   0.03642   0.04053   0.04652   0.05029
  Beta virt. eigenvalues --    0.05885   0.06732   0.07135   0.07771   0.08210
  Beta virt. eigenvalues --    0.08430   0.09337   0.09668   0.10623   0.10776
  Beta virt. eigenvalues --    0.11018   0.11954   0.12233   0.12738   0.13653
  Beta virt. eigenvalues --    0.14642   0.14932   0.16026   0.16095   0.16727
  Beta virt. eigenvalues --    0.17107   0.17187   0.18083   0.18253   0.18909
  Beta virt. eigenvalues --    0.19736   0.19967   0.22388   0.22808   0.22825
  Beta virt. eigenvalues --    0.23191   0.23691   0.25068   0.25726   0.27191
  Beta virt. eigenvalues --    0.27419   0.28092   0.28656   0.29982   0.31613
  Beta virt. eigenvalues --    0.31625   0.33782   0.42486   0.43646   0.44076
  Beta virt. eigenvalues --    0.45092   0.46428   0.46735   0.48776   0.48857
  Beta virt. eigenvalues --    0.49501   0.49871   0.50988   0.51050   0.52217
  Beta virt. eigenvalues --    0.53866   0.53890   0.54302   0.59015   0.60411
  Beta virt. eigenvalues --    0.60743   0.62828   0.63098   0.64615   0.65683
  Beta virt. eigenvalues --    0.67138   0.68707   0.69291   0.70169   0.73298
  Beta virt. eigenvalues --    0.76790   0.77617   0.82145   0.84172   0.86413
  Beta virt. eigenvalues --    0.86636   0.87532   0.87621   0.88609   0.89078
  Beta virt. eigenvalues --    0.89714   0.90707   0.91553   0.92560   0.92620
  Beta virt. eigenvalues --    0.94435   0.95293   0.96361   0.97101   0.97903
  Beta virt. eigenvalues --    0.98278   0.99870   1.00902   1.01834   1.02760
  Beta virt. eigenvalues --    1.05749   1.08765   1.09340   1.15382   1.16501
  Beta virt. eigenvalues --    1.22497   1.25285   1.26268   1.28441   1.29499
  Beta virt. eigenvalues --    1.31532   1.32612   1.33731   1.35519   1.36719
  Beta virt. eigenvalues --    1.40613   1.46519   1.50217   1.53498   1.61417
  Beta virt. eigenvalues --    1.65006   1.70210   1.75314   1.78908   1.80962
  Beta virt. eigenvalues --    1.84792   1.86260   1.86270   1.86666   1.93186
  Beta virt. eigenvalues --    1.93613   2.01328   2.08077   2.10993   2.18812
  Beta virt. eigenvalues --    2.23483   2.25724   2.27390   2.28854   2.29034
  Beta virt. eigenvalues --    2.30626   2.34196   2.34536   2.36378   2.42482
  Beta virt. eigenvalues --    2.43747   2.45295   2.50310   2.50714   2.55936
  Beta virt. eigenvalues --    2.58989   2.63248   2.64230   2.65651   2.67767
  Beta virt. eigenvalues --    2.72741   2.78900   2.81177   2.89978   2.91247
  Beta virt. eigenvalues --    2.94615   3.09081   3.11945   3.14478   3.20431
  Beta virt. eigenvalues --    3.25359   3.28983   3.39419   3.52890   3.69965
  Beta virt. eigenvalues --    3.73969   3.94875   4.05243   4.74695   9.90319
  Beta virt. eigenvalues --    9.98274   9.99897  10.01429  23.36476  23.82831
  Beta virt. eigenvalues --   23.86753  23.96262  24.01394  24.20081  25.86232
  Beta virt. eigenvalues --   25.90005  25.93595  26.00040  26.15859  26.19629
  Beta virt. eigenvalues --   26.24892  26.30316  26.47914  26.68111  26.82425
  Beta virt. eigenvalues --   26.97330 215.99644 216.08650 216.10657 216.12520
          Condensed to atoms (all electrons):
               1          2          3          4          5          6
     1  C   13.829373   0.019123  -2.066736   0.769931  -4.613251  -1.393910
     2  C    0.019123  11.881089  -0.767288  -3.215670   0.313643  -1.596995
     3  C   -2.066736  -0.767288  11.725962  -1.036986  -1.719678   0.933361
     4  C    0.769931  -3.215670  -1.036986  10.042527   1.119299  -1.065539
     5  C   -4.613251   0.313643  -1.719678   1.119299  12.656048  -1.205226
     6  C   -1.393910  -1.596995   0.933361  -1.065539  -1.205226  11.561342
     7  Cl   0.457127  -0.151841   0.077363  -0.241327  -0.174857  -0.582967
     8  Cl  -0.893867   0.242526  -0.231775   0.270007   0.004540  -0.085295
     9  Cl   0.417516  -0.848225  -0.351108   0.042211   0.351491  -0.273314
    10  Cl  -0.292965   0.411768  -0.192614  -0.369039  -0.294868   0.041327
    11  H   -0.070183   0.006527  -0.072942   0.044870   0.541131  -0.137002
               7          8          9         10         11
     1  C    0.457127  -0.893867   0.417516  -0.292965  -0.070183
     2  C   -0.151841   0.242526  -0.848225   0.411768   0.006527
     3  C    0.077363  -0.231775  -0.351108  -0.192614  -0.072942
     4  C   -0.241327   0.270007   0.042211  -0.369039   0.044870
     5  C   -0.174857   0.004540   0.351491  -0.294868   0.541131
     6  C   -0.582967  -0.085295  -0.273314   0.041327  -0.137002
     7  Cl  17.444071  -0.270895   0.011720  -0.010564   0.006951
     8  Cl  -0.270895  17.672706  -0.294816   0.013701  -0.008803
     9  Cl   0.011720  -0.294816  17.650472  -0.263574   0.005031
    10  Cl  -0.010564   0.013701  -0.263574  17.465315  -0.009050
    11  H    0.006951  -0.008803   0.005031  -0.009050   0.475114
          Atomic-Atomic Spin Densities.
               1          2          3          4          5          6
     1  C    0.775709  -0.204079  -0.061770   0.300215  -0.550598  -0.290221
     2  C   -0.204079   0.425003  -0.084815  -0.249567   0.155200   0.049474
     3  C   -0.061770  -0.084815  -0.161411  -0.055151   0.196775   0.108996
     4  C    0.300215  -0.249567  -0.055151   1.204756  -0.128768  -0.183140
     5  C   -0.550598   0.155200   0.196775  -0.128768   0.250898   0.073517
     6  C   -0.290221   0.049474   0.108996  -0.183140   0.073517   0.350294
     7  Cl  -0.093855   0.019681   0.007152  -0.030682   0.080642   0.000613
     8  Cl   0.076653   0.017160  -0.015698  -0.001085  -0.031924  -0.038808
     9  Cl  -0.096886  -0.093488   0.076368   0.001174   0.048880   0.050672
    10  Cl   0.059218   0.064829  -0.021762  -0.040608  -0.056921  -0.021715
    11  H    0.006911  -0.004529  -0.004184   0.023781   0.001867  -0.036483
               7          8          9         10         11
     1  C   -0.093855   0.076653  -0.096886   0.059218   0.006911
     2  C    0.019681   0.017160  -0.093488   0.064829  -0.004529
     3  C    0.007152  -0.015698   0.076368  -0.021762  -0.004184
     4  C   -0.030682  -0.001085   0.001174  -0.040608   0.023781
     5  C    0.080642  -0.031924   0.048880  -0.056921   0.001867
     6  C    0.000613  -0.038808   0.050672  -0.021715  -0.036483
     7  Cl   0.031454   0.000273   0.002479  -0.001291  -0.000650
     8  Cl   0.000273  -0.007302  -0.007776   0.004157  -0.000400
     9  Cl   0.002479  -0.007776   0.072041  -0.039396  -0.000063
    10  Cl  -0.001291   0.004157  -0.039396   0.060880  -0.000696
    11  H   -0.000650  -0.000400  -0.000063  -0.000696   0.038325
 Mulliken charges and spin densities:
               1          2
     1  C   -0.162157  -0.078703
     2  C   -0.294655   0.094870
     3  C   -0.297558  -0.015501
     4  C   -0.360283   0.840925
     5  C   -0.978271   0.039569
     6  C   -0.195783   0.063200
     7  Cl   0.435221   0.015816
     8  Cl   0.581972  -0.004751
     9  Cl   0.552596   0.014004
    10  Cl   0.500563   0.006693
    11  H    0.218357   0.023877
 Sum of Mulliken charges =  -0.00000   1.00000
 Mulliken charges and spin densities with hydrogens summed into heavy atoms:
               1          2
     1  C   -0.162157  -0.078703
     2  C   -0.294655   0.094870
     3  C   -0.297558  -0.015501
     4  C   -0.360283   0.840925
     5  C   -0.759915   0.063446
     6  C   -0.195783   0.063200
     7  Cl   0.435221   0.015816
     8  Cl   0.581972  -0.004751
     9  Cl   0.552596   0.014004
    10  Cl   0.500563   0.006693
 Electronic spatial extent (au):  <R**2>=           2538.1289
 Charge=             -0.0000 electrons
 Dipole moment (field-independent basis, Debye):
    X=              1.1470    Y=              0.2699    Z=             -0.0000  Tot=              1.1783
 Quadrupole moment (field-independent basis, Debye-Ang):
   XX=            -79.2719   YY=            -85.4051   ZZ=            -85.7573
   XY=              0.7531   XZ=              0.0000   YZ=              0.0000
 Traceless Quadrupole moment (field-independent basis, Debye-Ang):
   XX=              4.2062   YY=             -1.9270   ZZ=             -2.2792
   XY=              0.7531   XZ=              0.0000   YZ=              0.0000
 Octapole moment (field-independent basis, Debye-Ang**2):
  XXX=             -1.4965  YYY=            -11.6262  ZZZ=              0.0000  XYY=             -8.6338
  XXY=             -0.8901  XXZ=              0.0000  XZZ=             -5.6830  YZZ=             -2.9089
  YYZ=              0.0000  XYZ=             -0.0000
 Hexadecapole moment (field-independent basis, Debye-Ang**3):
 XXXX=          -1233.7888 YYYY=          -1798.1823 ZZZZ=            -98.5647 XXXY=            222.7144
 XXXZ=              0.0000 YYYX=            195.5406 YYYZ=             -0.0000 ZZZX=              0.0000
 ZZZY=             -0.0000 XXYY=           -517.6335 XXZZ=           -247.2053 YYZZ=           -334.6680
 XXYZ=             -0.0000 YYXZ=              0.0000 ZZXY=             73.7583
 N-N= 8.385576700745D+02 E-N=-6.583937495000D+03  KE= 2.065294789991D+03
 Symmetry A'   KE= 1.875015492926D+03
 Symmetry A"   KE= 1.902792970656D+02
 Symmetry A'   SP= 1.000000000000D+00
 Symmetry A"   SP=-1.153676397154D-14
                          Isotropic Fermi Contact Couplings
        Atom                 a.u.       MegaHertz       Gauss      10(-4) cm-1
     1  C(13)             -0.01070     -12.02856      -4.29209      -4.01230
     2  C(13)              0.05231      58.80307      20.98240      19.61459
     3  C(13)             -0.01220     -13.71916      -4.89534      -4.57622
     4  C(13)              0.43958     494.16814     176.33148     164.83675
     5  C(13)              0.00539       6.06267       2.16331       2.02229
     6  C(13)              0.07253      81.53396      29.09334      27.19680
     7  Cl(35)             0.00165       0.72489       0.25866       0.24180
     8  Cl(35)             0.00049       0.21602       0.07708       0.07206
     9  Cl(35)             0.00549       2.40678       0.85880       0.80281
    10  Cl(35)             0.01832       8.03106       2.86568       2.67887
    11  H(1)               0.01282      57.30694      20.44854      19.11554
 --------------------------------------------------------
       Center         ----  Spin Dipole Couplings  ----
                      3XX-RR        3YY-RR        3ZZ-RR
 --------------------------------------------------------
     1   Atom        0.024981      0.032473     -0.057454
     2   Atom       -0.014989      0.010304      0.004685
     3   Atom        0.120651     -0.017817     -0.102834
     4   Atom       -0.170041      0.563331     -0.393290
     5   Atom        0.012779      0.086162     -0.098941
     6   Atom       -0.015401      0.015686     -0.000285
     7   Atom       -0.058996      0.078306     -0.019310
     8   Atom        0.023453      0.027235     -0.050688
     9   Atom        0.063939     -0.028576     -0.035363
    10   Atom        0.114818      0.033256     -0.148074
    11   Atom        0.007271      0.004452     -0.011724
 --------------------------------------------------------
                        XY            XZ            YZ
 --------------------------------------------------------
     1   Atom        0.006967     -0.000000     -0.000000
     2   Atom        0.023115     -0.000000     -0.000000
     3   Atom       -0.011199     -0.000000      0.000000
     4   Atom        0.678144     -0.000000     -0.000000
     5   Atom       -0.034425      0.000000     -0.000000
     6   Atom        0.034718     -0.000000      0.000000
     7   Atom       -0.010887     -0.000000      0.000000
     8   Atom        0.005819     -0.000000     -0.000000
     9   Atom        0.082703      0.000000      0.000000
    10   Atom       -0.146057     -0.000000      0.000000
    11   Atom       -0.016109     -0.000000      0.000000
 --------------------------------------------------------


 ---------------------------------------------------------------------------------
              Anisotropic Spin Dipole Couplings in Principal Axis System
 ---------------------------------------------------------------------------------

       Atom             a.u.   MegaHertz   Gauss  10(-4) cm-1        Axes

              Baa    -0.0575    -7.710    -2.751    -2.572  0.0000  0.0000  1.0000
     1 C(13)  Bbb     0.0208     2.793     0.997     0.932  0.8584 -0.5130 -0.0000
              Bcc     0.0366     4.916     1.754     1.640  0.5130  0.8584 -0.0000
 
              Baa    -0.0287    -3.850    -1.374    -1.284  0.8602 -0.5099 -0.0000
     2 C(13)  Bbb     0.0047     0.629     0.224     0.210  0.0000  0.0000  1.0000
              Bcc     0.0240     3.221     1.149     1.075  0.5099  0.8602 -0.0000
 
              Baa    -0.1028   -13.799    -4.924    -4.603  0.0000  0.0000  1.0000
     3 C(13)  Bbb    -0.0187    -2.512    -0.896    -0.838  0.0801  0.9968 -0.0000
              Bcc     0.1216    16.311     5.820     5.441  0.9968 -0.0801  0.0000
 
              Baa    -0.5743   -77.064   -27.498   -25.706  0.8590 -0.5120  0.0000
     4 C(13)  Bbb    -0.3933   -52.776   -18.832   -17.604  0.0000  0.0000  1.0000
              Bcc     0.9676   129.840    46.330    43.310  0.5120  0.8590 -0.0000
 
              Baa    -0.0989   -13.277    -4.738    -4.429  0.0000  0.0000  1.0000
     5 C(13)  Bbb    -0.0008    -0.113    -0.040    -0.038  0.9299  0.3679  0.0000
              Bcc     0.0998    13.390     4.778     4.466 -0.3679  0.9299 -0.0000
 
              Baa    -0.0379    -5.085    -1.815    -1.696  0.8392 -0.5438  0.0000
     6 C(13)  Bbb    -0.0003    -0.038    -0.014    -0.013  0.0000  0.0000  1.0000
              Bcc     0.0382     5.124     1.828     1.709  0.5438  0.8392 -0.0000
 
              Baa    -0.0599    -3.133    -1.118    -1.045  0.9969  0.0786  0.0000
     7 Cl(35) Bbb    -0.0193    -1.011    -0.361    -0.337  0.0000  0.0000  1.0000
              Bcc     0.0792     4.143     1.478     1.382 -0.0786  0.9969 -0.0000
 
              Baa    -0.0507    -2.653    -0.947    -0.885  0.0000  0.0000  1.0000
     8 Cl(35) Bbb     0.0192     1.006     0.359     0.336  0.8090 -0.5878 -0.0000
              Bcc     0.0315     1.647     0.588     0.549  0.5878  0.8090 -0.0000
 
              Baa    -0.0771    -4.034    -1.439    -1.346 -0.5059  0.8626 -0.0000
     9 Cl(35) Bbb    -0.0354    -1.851    -0.660    -0.617  0.0000  0.0000  1.0000
              Bcc     0.1124     5.885     2.100     1.963  0.8626  0.5059 -0.0000
 
              Baa    -0.1481    -7.750    -2.765    -2.585  0.0000  0.0000  1.0000
    10 Cl(35) Bbb    -0.0776    -4.062    -1.449    -1.355  0.6046  0.7965 -0.0000
              Bcc     0.2257    11.812     4.215     3.940  0.7965 -0.6046  0.0000
 
              Baa    -0.0117    -6.255    -2.232    -2.087  0.0000  0.0000  1.0000
    11 H(1)   Bbb    -0.0103    -5.500    -1.963    -1.835  0.6756  0.7373  0.0000
              Bcc     0.0220    11.755     4.195     3.921  0.7373 -0.6756  0.0000
 

 ---------------------------------------------------------------------------------

 Calling FoFJK, ICntrl=      2127 FMM=F ISym2X=1 I1Cent= 0 IOpClX= 1 NMat=1 NMatS=1 NMatT=0.
 ***** Axes restored to original set *****
 -------------------------------------------------------------------
 Center     Atomic                   Forces (Hartrees/Bohr)
 Number     Number              X              Y              Z
 -------------------------------------------------------------------
      1        6           0.020103892   -0.013968866   -0.000000000
      2        6           0.006445450   -0.029209417   -0.000000000
      3        6          -0.040741179   -0.015315777   -0.000000000
      4        6           0.008217840   -0.000916413   -0.000000000
      5        6          -0.007336243    0.007961458    0.000000000
      6        6           0.029704085    0.012451212    0.000000000
      7       17          -0.018243529   -0.010993712   -0.000000000
      8       17          -0.016448086    0.008860313    0.000000000
      9       17          -0.000579425    0.019155562    0.000000000
     10       17           0.021315154    0.011282762    0.000000000
     11        1          -0.002437959    0.010692879    0.000000000
 -------------------------------------------------------------------
 Cartesian Forces:  Max     0.040741179 RMS     0.014016561

 GradGradGradGradGradGradGradGradGradGradGradGradGradGradGradGradGradGrad
 Berny optimization.
 FormGI is forming the generalized inverse of G from B-inverse, IUseBI=4.
 Internal  Forces:  Max     0.024115235 RMS     0.007599099
 Search for a local minimum.
 Step number   1 out of a maximum of   57
 All quantities printed in internal units (Hartrees-Bohrs-Radians)
 Mixed Optimization -- RFO/linear search
 Second derivative matrix not updated -- first step.
 ITU=  0
     Eigenvalues ---    0.01844   0.01869   0.01878   0.01891   0.01935
     Eigenvalues ---    0.02012   0.02115   0.02381   0.16000   0.23382
     Eigenvalues ---    0.25000   0.25000   0.25000   0.25000   0.25000
     Eigenvalues ---    0.25000   0.33921   0.37066   0.37445   0.37734
     Eigenvalues ---    0.38689   0.40050   0.41117   0.42772   0.43180
     Eigenvalues ---    0.48612   0.50775
 RFO step:  Lambda=-7.22072088D-03 EMin= 1.84368259D-02
 Linear search not attempted -- first point.
 Iteration  1 RMS(Cart)=  0.01806942 RMS(Int)=  0.00016393
 Iteration  2 RMS(Cart)=  0.00021195 RMS(Int)=  0.00003522
 Iteration  3 RMS(Cart)=  0.00000004 RMS(Int)=  0.00003522
 ClnCor:  largest displacement from symmetrization is 2.07D-09 for atom     8.
 Variable       Old X    -DE/DX   Delta X   Delta X   Delta X     New X
                                 (Linear)    (Quad)   (Total)
    R1        2.67642  -0.00818   0.00000  -0.01855  -0.01860   2.65782
    R2        2.67493  -0.01140   0.00000  -0.02620  -0.02625   2.64868
    R3        3.19447   0.01868   0.00000   0.04944   0.04944   3.24392
    R4        2.68429  -0.01192   0.00000  -0.02730  -0.02730   2.65699
    R5        3.18454   0.01916   0.00000   0.04984   0.04984   3.23437
    R6        2.59943  -0.00820   0.00000  -0.01604  -0.01599   2.58344
    R7        3.17074   0.02412   0.00000   0.06119   0.06119   3.23193
    R8        2.58185  -0.00486   0.00000  -0.00936  -0.00931   2.57254
    R9        2.67274  -0.01309   0.00000  -0.03008  -0.03008   2.64266
   R10        2.07464  -0.01082   0.00000  -0.03122  -0.03122   2.04342
   R11        3.18881   0.02129   0.00000   0.05579   0.05579   3.24460
    A1        2.11441  -0.00287   0.00000  -0.01175  -0.01185   2.10256
    A2        2.08371   0.00148   0.00000   0.00605   0.00610   2.08981
    A3        2.08506   0.00139   0.00000   0.00570   0.00575   2.09082
    A4        2.08492   0.00116   0.00000   0.00491   0.00485   2.08977
    A5        2.10706  -0.00071   0.00000  -0.00295  -0.00293   2.10413
    A6        2.09120  -0.00045   0.00000  -0.00195  -0.00192   2.08928
    A7        2.00570   0.00534   0.00000   0.02128   0.02132   2.02702
    A8        2.14669  -0.00215   0.00000  -0.00860  -0.00862   2.13807
    A9        2.13080  -0.00319   0.00000  -0.01268  -0.01270   2.11810
   A10        2.26224  -0.01076   0.00000  -0.04242  -0.04229   2.21995
   A11        2.00496   0.00644   0.00000   0.02676   0.02681   2.03177
   A12        2.14505  -0.00134   0.00000  -0.00217  -0.00219   2.14286
   A13        2.13318  -0.00509   0.00000  -0.02459  -0.02462   2.10856
   A14        2.09414   0.00069   0.00000   0.00122   0.00116   2.09530
   A15        2.11518  -0.00105   0.00000  -0.00335  -0.00332   2.11186
   A16        2.07387   0.00036   0.00000   0.00213   0.00216   2.07602
    D1       -0.00000   0.00000   0.00000  -0.00000   0.00000   0.00000
    D2        3.14159   0.00000   0.00000   0.00000   0.00000   3.14159
    D3        3.14159   0.00000   0.00000  -0.00000   0.00000   3.14159
    D4        0.00000   0.00000   0.00000   0.00000   0.00000   0.00000
    D5       -0.00000  -0.00000   0.00000  -0.00000   0.00000   0.00000
    D6        3.14159  -0.00000   0.00000  -0.00000   0.00000   3.14159
    D7        3.14159  -0.00000   0.00000  -0.00000   0.00000   3.14159
    D8        0.00000  -0.00000   0.00000  -0.00000  -0.00000   0.00000
    D9        0.00000  -0.00000   0.00000   0.00000   0.00000   0.00000
   D10        3.14159  -0.00000   0.00000   0.00000   0.00000   3.14159
   D11        3.14159  -0.00000   0.00000  -0.00000   0.00000   3.14159
   D12       -0.00000  -0.00000   0.00000   0.00000   0.00000   0.00000
   D13        0.00000  -0.00000   0.00000  -0.00000  -0.00000   0.00000
   D14        3.14159  -0.00000   0.00000  -0.00000   0.00000   3.14159
   D15       -0.00000   0.00000   0.00000  -0.00000   0.00000   0.00000
   D16        3.14159   0.00000   0.00000   0.00000   0.00000   3.14159
   D17        0.00000  -0.00000   0.00000   0.00000  -0.00000   0.00000
   D18        3.14159  -0.00000   0.00000   0.00000   0.00000   3.14159
   D19        3.14159  -0.00000   0.00000  -0.00000   0.00000   3.14159
   D20       -0.00000   0.00000   0.00000   0.00000   0.00000   0.00000
         Item               Value     Threshold  Converged?
 Maximum Force            0.024115     0.000450     NO 
 RMS     Force            0.007599     0.000300     NO 
 Maximum Displacement     0.063088     0.001800     NO 
 RMS     Displacement     0.018086     0.001200     NO 
 Predicted change in Energy=-3.682033D-03
 GradGradGradGradGradGradGradGradGradGradGradGradGradGradGradGradGradGrad

                          Input orientation:                          
 ---------------------------------------------------------------------
 Center     Atomic      Atomic             Coordinates (Angstroms)
 Number     Number       Type             X           Y           Z
 ---------------------------------------------------------------------
      1          6           0       -3.204588    0.143810   -0.000000
      2          6           0       -2.010562    0.887064    0.000000
      3          6           0       -0.773335    0.219113   -0.000000
      4          6           0       -0.826391   -1.146954   -0.000000
      5          6           0       -1.941940   -1.927190   -0.000000
      6          6           0       -3.169525   -1.257373   -0.000000
      7         17           0       -4.618659   -2.178235   -0.000000
      8         17           0       -4.715145    0.959256    0.000000
      9         17           0       -2.050685    2.598151    0.000000
     10         17           0        0.720550    1.051768    0.000000
     11          1           0       -1.900561   -3.007728   -0.000000
 ---------------------------------------------------------------------
                    Distance matrix (angstroms):
                    1          2          3          4          5
     1  C    0.000000
     2  C    1.406458   0.000000
     3  C    2.432419   1.406019   0.000000
     4  C    2.705900   2.353612   1.367098   0.000000
     5  C    2.425556   2.815090   2.443820   1.361329   0.000000
     6  C    1.401622   2.437582   2.814559   2.345734   1.398435
     7  Cl   2.718730   4.024702   4.531424   3.929992   2.688466
     8  Cl   1.716606   2.705547   4.010696   4.422503   4.002779
     9  Cl   2.712061   1.711557   2.700267   3.940141   4.526647
    10  Cl   4.028783   2.736074   1.710264   2.688383   3.995377
    11  H    3.410672   3.896345   3.418062   2.148563   1.081330
                    6          7          8          9         10
     6  C    0.000000
     7  Cl   1.716968   0.000000
     8  Cl   2.702293   3.138974   0.000000
     9  Cl   4.014582   5.422947   3.128150   0.000000
    10  Cl   4.523805   6.240198   5.436483   3.173491   0.000000
    11  H    2.161947   2.841851   4.864036   5.607889   4.832156
                   11
    11  H    0.000000
 Stoichiometry    C6HCl4(2)
 Framework group  CS[SG(C6HCl4)]
 Deg. of freedom    19
 Full point group                 CS      NOp   2
 Largest Abelian subgroup         CS      NOp   2
 Largest concise Abelian subgroup C1      NOp   1
                         Standard orientation:                         
 ---------------------------------------------------------------------
 Center     Atomic      Atomic             Coordinates (Angstroms)
 Number     Number       Type             X           Y           Z
 ---------------------------------------------------------------------
      1          6           0        0.000000   -0.779741   -0.000000
      2          6           0       -0.673046    0.455222    0.000000
      3          6           0        0.065252    1.651802    0.000000
      4          6           0        1.425974    1.519931    0.000000
      5          6           0        2.140473    0.361178    0.000000
      6          6           0        1.400869   -0.825669   -0.000000
      7         17           0        2.236492   -2.325573   -0.000000
      8         17           0       -0.901334   -2.240677   -0.000000
      9         17           0       -2.383594    0.513997    0.000000
     10         17           0       -0.679726    3.191287    0.000000
     11          1           0        3.221598    0.340076    0.000000
 ---------------------------------------------------------------------
 Rotational constants (GHZ):           1.1943726           0.5469789           0.3751664
 Standard basis: 6-311++G(d,p) (5D, 7F)
 There are   200 symmetry adapted cartesian basis functions of A'  symmetry.
 There are    69 symmetry adapted cartesian basis functions of A"  symmetry.
 There are   190 symmetry adapted basis functions of A'  symmetry.
 There are    69 symmetry adapted basis functions of A"  symmetry.
   259 basis functions,   437 primitive gaussians,   269 cartesian basis functions
    53 alpha electrons       52 beta electrons
       nuclear repulsion energy       835.6420819058 Hartrees.
 NAtoms=   11 NActive=   11 NUniq=   11 SFac= 1.00D+00 NAtFMM=   60 NAOKFM=F Big=F
 Integral buffers will be    131072 words long.
 Raffenetti 2 integral format.
 Two-electron integral symmetry is turned on.
 One-electron integrals computed using PRISM.
 NBasis=   259 RedAO= T EigKep=  3.41D-06  NBF=   190    69
 NBsUse=   257 1.00D-06 EigRej=  8.05D-07 NBFU=   188    69
 Initial guess from the checkpoint file:  "frequency_chks/12345-1234_-ClBzNeutralRadical_Freq.chk"
 B after Tr=     0.000000    0.000000    0.000000
         Rot=    0.999987   -0.000000    0.000000    0.005116 Ang=   0.59 deg.
 Initial guess orbital symmetries:
 Alpha Orbitals:
       Occupied  (A') (A') (A') (A') (A') (A') (A') (A') (A') (A')
                 (A') (A') (A') (A') (A') (A') (A') (A') (A") (A')
                 (A") (A') (A") (A') (A") (A') (A') (A') (A') (A')
                 (A') (A') (A') (A') (A') (A') (A') (A') (A') (A")
                 (A') (A') (A") (A") (A') (A") (A') (A') (A") (A')
                 (A') (A") (A")
       Virtual   (A") (A") (A') (A') (A') (A') (A') (A') (A") (A')
                 (A') (A") (A") (A') (A') (A') (A") (A') (A") (A')
                 (A") (A') (A') (A') (A') (A") (A") (A') (A') (A")
                 (A') (A') (A") (A') (A') (A') (A') (A") (A') (A')
                 (A') (A') (A') (A') (A') (A') (A') (A') (A') (A')
                 (A') (A') (A') (A") (A') (A") (A') (A') (A") (A')
                 (A') (A") (A') (A') (A") (A') (A') (A") (A") (A')
                 (A") (A") (A') (A') (A') (A') (A") (A') (A') (A")
                 (A') (A') (A") (A') (A') (A") (A') (A') (A') (A")
                 (A") (A") (A") (A') (A') (A') (A') (A') (A') (A')
                 (A') (A") (A") (A') (A') (A') (A') (A") (A') (A')
                 (A') (A') (A') (A") (A') (A") (A') (A") (A") (A')
                 (A') (A') (A') (A") (A') (A') (A') (A") (A') (A')
                 (A') (A") (A") (A") (A') (A') (A") (A') (A') (A')
                 (A") (A") (A') (A") (A") (A") (A') (A') (A') (A')
                 (A') (A') (A') (A') (A') (A') (A') (A") (A') (A')
                 (A") (A") (A") (A") (A') (A") (A') (A') (A') (A')
                 (A') (A') (A') (A') (A') (A') (A') (A') (A') (A')
                 (A') (A') (A') (A') (A') (A') (A') (A') (A") (A")
                 (A") (A") (A') (A') (A') (A') (A') (A') (A') (A')
                 (A') (A') (A') (A')
 Beta  Orbitals:
       Occupied  (A') (A') (A') (A') (A') (A') (A') (A') (A') (A')
                 (A') (A') (A') (A') (A') (A') (A') (A') (A") (A")
                 (A') (A') (A") (A') (A") (A') (A') (A') (A') (A')
                 (A') (A') (A') (A') (A') (A') (A') (A') (A') (A")
                 (A') (A') (A") (A") (A") (A') (A') (A') (A") (A')
                 (A") (A")
       Virtual   (A') (A") (A") (A') (A') (A') (A') (A') (A') (A")
                 (A') (A') (A") (A") (A') (A') (A') (A") (A') (A")
                 (A') (A") (A') (A') (A') (A") (A') (A") (A') (A')
                 (A") (A') (A') (A") (A') (A') (A') (A') (A") (A')
                 (A') (A') (A') (A') (A') (A') (A') (A') (A') (A')
                 (A') (A') (A') (A') (A") (A') (A") (A') (A') (A")
                 (A') (A') (A") (A') (A') (A') (A") (A') (A") (A')
                 (A") (A") (A") (A') (A') (A') (A") (A') (A') (A')
                 (A") (A') (A') (A") (A') (A') (A") (A') (A') (A')
                 (A") (A") (A") (A') (A") (A') (A') (A') (A') (A')
                 (A') (A') (A") (A") (A') (A') (A') (A') (A") (A')
                 (A') (A') (A') (A') (A") (A') (A") (A') (A") (A")
                 (A') (A') (A') (A') (A") (A') (A') (A') (A") (A')
                 (A') (A') (A") (A") (A') (A") (A') (A") (A') (A')
                 (A') (A") (A") (A') (A") (A") (A") (A') (A') (A')
                 (A') (A') (A') (A') (A') (A') (A') (A') (A") (A')
                 (A') (A") (A") (A") (A") (A') (A") (A') (A') (A')
                 (A') (A') (A') (A') (A') (A') (A') (A') (A') (A')
                 (A') (A') (A') (A') (A') (A') (A') (A') (A') (A")
                 (A") (A") (A") (A') (A') (A') (A') (A') (A') (A')
                 (A') (A') (A') (A') (A')
 Initial guess <Sx>= 0.0000 <Sy>= 0.0000 <Sz>= 0.5000 <S**2>= 0.7633 S= 0.5066
 ExpMin= 3.60D-02 ExpMax= 1.06D+05 ExpMxC= 3.62D+03 IAcc=3 IRadAn=         5 AccDes= 0.00D+00
 Harris functional with IExCor= 1009 and IRadAn=       5 diagonalized for initial guess.
 HarFok:  IExCor= 1009 AccDes= 0.00D+00 IRadAn=         5 IDoV= 1 UseB2=F ITyADJ=14
 ICtDFT=  3500011 ScaDFX=  1.000000  1.000000  1.000000  1.000000
 FoFCou: FMM=F IPFlag=           0 FMFlag=      100000 FMFlg1=           0
         NFxFlg=           0 DoJE=T BraDBF=F KetDBF=T FulRan=T
         wScrn=  0.000000 ICntrl=       500 IOpCl=  0 I1Cent=   200000004 NGrid=           0
         NMat0=    1 NMatS0=      1 NMatT0=    0 NMatD0=    1 NMtDS0=    0 NMtDT0=    0
 Petite list used in FoFCou.
 Keep R1 and R2 ints in memory in symmetry-blocked form, NReq=892001928.
 Requested convergence on RMS density matrix=1.00D-08 within 128 cycles.
 Requested convergence on MAX density matrix=1.00D-06.
 Requested convergence on             energy=1.00D-06.
 No special actions if energy rises.
 SCF Done:  E(UM062X) =  -2069.89721723     A.U. after   16 cycles
            NFock= 16  Conv=0.49D-08     -V/T= 2.0022
 <Sx>= 0.0000 <Sy>= 0.0000 <Sz>= 0.5000 <S**2>= 0.7630 S= 0.5065
 <L.S>=  0.00000000000    
 Annihilation of the first spin contaminant:
 S**2 before annihilation     0.7630,   after     0.7501
 Calling FoFJK, ICntrl=      2127 FMM=F ISym2X=1 I1Cent= 0 IOpClX= 1 NMat=1 NMatS=1 NMatT=0.
 ***** Axes restored to original set *****
 -------------------------------------------------------------------
 Center     Atomic                   Forces (Hartrees/Bohr)
 Number     Number              X              Y              Z
 -------------------------------------------------------------------
      1        6           0.003212604   -0.001926398   -0.000000000
      2        6           0.002385845   -0.006632238   -0.000000000
      3        6          -0.013371254   -0.002377973   -0.000000000
      4        6           0.006069493   -0.000431448   -0.000000000
      5        6          -0.004231434    0.001084745    0.000000000
      6        6           0.007516468    0.003925110    0.000000000
      7       17          -0.004247828   -0.003120100   -0.000000000
      8       17          -0.003077224    0.002032561    0.000000000
      9       17          -0.000483298    0.005204859    0.000000000
     10       17           0.006743437    0.003058961    0.000000000
     11        1          -0.000516808   -0.000818079   -0.000000000
 -------------------------------------------------------------------
 Cartesian Forces:  Max     0.013371254 RMS     0.003894976

 GradGradGradGradGradGradGradGradGradGradGradGradGradGradGradGradGradGrad
 Berny optimization.
 Using GEDIIS/GDIIS optimizer.
 FormGI is forming the generalized inverse of G from B-inverse, IUseBI=4.
 Internal  Forces:  Max     0.007379605 RMS     0.001955377
 Search for a local minimum.
 Step number   2 out of a maximum of   57
 All quantities printed in internal units (Hartrees-Bohrs-Radians)
 Mixed Optimization -- RFO/linear search
 Update second derivatives using D2CorX and points    1    2
 DE= -4.40D-03 DEPred=-3.68D-03 R= 1.19D+00
 TightC=F SS=  1.41D+00  RLast= 1.41D-01 DXNew= 5.0454D-01 4.2276D-01
 Trust test= 1.19D+00 RLast= 1.41D-01 DXMaxT set to 4.23D-01
 ITU=  1  0
 Use linear search instead of GDIIS.
     Eigenvalues ---    0.01844   0.01868   0.01878   0.01891   0.01935
     Eigenvalues ---    0.02012   0.02120   0.02374   0.15939   0.21920
     Eigenvalues ---    0.23961   0.25000   0.25000   0.25000   0.25000
     Eigenvalues ---    0.25098   0.31660   0.34696   0.37230   0.37621
     Eigenvalues ---    0.38301   0.40010   0.41026   0.42731   0.43122
     Eigenvalues ---    0.49476   0.51359
 RFO step:  Lambda=-2.32765863D-04 EMin= 1.84366470D-02
 Quartic linear search produced a step of  0.30122.
 Iteration  1 RMS(Cart)=  0.00650584 RMS(Int)=  0.00003896
 Iteration  2 RMS(Cart)=  0.00005055 RMS(Int)=  0.00001929
 Iteration  3 RMS(Cart)=  0.00000000 RMS(Int)=  0.00001929
 ClnCor:  largest displacement from symmetrization is 1.73D-09 for atom     8.
 Variable       Old X    -DE/DX   Delta X   Delta X   Delta X     New X
                                 (Linear)    (Quad)   (Total)
    R1        2.65782  -0.00182  -0.00560  -0.00095  -0.00658   2.65124
    R2        2.64868  -0.00117  -0.00791   0.00322  -0.00471   2.64397
    R3        3.24392   0.00367   0.01489  -0.00031   0.01458   3.25850
    R4        2.65699  -0.00291  -0.00822  -0.00176  -0.00998   2.64701
    R5        3.23437   0.00521   0.01501   0.00466   0.01968   3.25405
    R6        2.58344   0.00043  -0.00482   0.00564   0.00086   2.58430
    R7        3.23193   0.00738   0.01843   0.00846   0.02689   3.25882
    R8        2.57254   0.00227  -0.00281   0.00855   0.00577   2.57831
    R9        2.64266  -0.00201  -0.00906   0.00216  -0.00690   2.63575
   R10        2.04342   0.00080  -0.00941   0.01139   0.00198   2.04540
   R11        3.24460   0.00526   0.01681   0.00336   0.02017   3.26477
    A1        2.10256  -0.00074  -0.00357  -0.00201  -0.00564   2.09692
    A2        2.08981  -0.00016   0.00184  -0.00179   0.00008   2.08989
    A3        2.09082   0.00090   0.00173   0.00380   0.00557   2.09638
    A4        2.08977  -0.00007   0.00146  -0.00273  -0.00130   2.08848
    A5        2.10413  -0.00055  -0.00088  -0.00154  -0.00241   2.10172
    A6        2.08928   0.00062  -0.00058   0.00428   0.00371   2.09299
    A7        2.02702   0.00273   0.00642   0.00864   0.01509   2.04210
    A8        2.13807  -0.00038  -0.00260   0.00027  -0.00234   2.13572
    A9        2.11810  -0.00235  -0.00382  -0.00890  -0.01274   2.10536
   A10        2.21995  -0.00373  -0.01274  -0.00667  -0.01934   2.20061
   A11        2.03177   0.00034   0.00808  -0.00416   0.00393   2.03570
   A12        2.14286   0.00039  -0.00066   0.00366   0.00299   2.14585
   A13        2.10856  -0.00073  -0.00741   0.00050  -0.00692   2.10164
   A14        2.09530   0.00146   0.00035   0.00695   0.00726   2.10256
   A15        2.11186  -0.00015  -0.00100   0.00026  -0.00072   2.11114
   A16        2.07602  -0.00131   0.00065  -0.00720  -0.00654   2.06949
    D1       -0.00000   0.00000   0.00000   0.00000   0.00000   0.00000
    D2        3.14159   0.00000   0.00000   0.00000   0.00000   3.14159
    D3        3.14159   0.00000   0.00000   0.00000   0.00000   3.14159
    D4        0.00000   0.00000   0.00000   0.00000   0.00000   0.00000
    D5        0.00000  -0.00000   0.00000  -0.00000   0.00000   0.00000
    D6        3.14159  -0.00000   0.00000   0.00000   0.00000   3.14159
    D7        3.14159  -0.00000   0.00000  -0.00000   0.00000   3.14159
    D8       -0.00000  -0.00000   0.00000  -0.00000   0.00000   0.00000
    D9        0.00000   0.00000   0.00000  -0.00000   0.00000   0.00000
   D10        3.14159   0.00000   0.00000  -0.00000   0.00000   3.14159
   D11        3.14159  -0.00000   0.00000   0.00000   0.00000   3.14159
   D12       -0.00000  -0.00000   0.00000  -0.00000   0.00000   0.00000
   D13        0.00000  -0.00000   0.00000  -0.00000  -0.00000   0.00000
   D14        3.14159  -0.00000   0.00000   0.00000   0.00000   3.14159
   D15       -0.00000   0.00000   0.00000   0.00000   0.00000   0.00000
   D16        3.14159   0.00000   0.00000  -0.00000   0.00000   3.14159
   D17        0.00000   0.00000   0.00000   0.00000  -0.00000   0.00000
   D18        3.14159   0.00000   0.00000  -0.00000   0.00000   3.14159
   D19        3.14159   0.00000   0.00000   0.00000   0.00000   3.14159
   D20       -0.00000   0.00000   0.00000  -0.00000   0.00000   0.00000
         Item               Value     Threshold  Converged?
 Maximum Force            0.007380     0.000450     NO 
 RMS     Force            0.001955     0.000300     NO 
 Maximum Displacement     0.017888     0.001800     NO 
 RMS     Displacement     0.006503     0.001200     NO 
 Predicted change in Energy=-3.498735D-04
 GradGradGradGradGradGradGradGradGradGradGradGradGradGradGradGradGradGrad

                          Input orientation:                          
 ---------------------------------------------------------------------
 Center     Atomic      Atomic             Coordinates (Angstroms)
 Number     Number       Type             X           Y           Z
 ---------------------------------------------------------------------
      1          6           0       -3.203621    0.144220   -0.000000
      2          6           0       -2.011485    0.883916    0.000000
      3          6           0       -0.780732    0.215105   -0.000000
      4          6           0       -0.816925   -1.151968   -0.000000
      5          6           0       -1.940415   -1.926119   -0.000000
      6          6           0       -3.162744   -1.254311   -0.000000
      7         17           0       -4.617656   -2.185962   -0.000000
      8         17           0       -4.719850    0.965398    0.000000
      9         17           0       -2.053527    2.605371    0.000000
     10         17           0        0.725913    1.054095    0.000000
     11          1           0       -1.909796   -3.008065   -0.000000
 ---------------------------------------------------------------------
                    Distance matrix (angstroms):
                    1          2          3          4          5
     1  C    0.000000
     2  C    1.402975   0.000000
     3  C    2.423926   1.400736   0.000000
     4  C    2.715957   2.360465   1.367552   0.000000
     5  C    2.425282   2.810933   2.435099   1.364383   0.000000
     6  C    1.399128   2.428458   2.798779   2.348051   1.394781
     7  Cl   2.725664   4.026944   4.526269   3.938871   2.689821
     8  Cl   1.724321   2.709590   4.009936   4.440278   4.010752
     9  Cl   2.716613   1.721969   2.708022   3.955602   4.532902
    10  Cl   4.033499   2.742683   1.724495   2.692037   3.998873
    11  H    3.407474   3.893309   3.415203   2.153941   1.082379
                    6          7          8          9         10
     6  C    0.000000
     7  Cl   1.727641   0.000000
     8  Cl   2.711399   3.153017   0.000000
     9  Cl   4.015907   5.434302   3.130302   0.000000
    10  Cl   4.522211   6.249137   5.446485   3.183040   0.000000
    11  H    2.155350   2.829905   4.866705   5.615276   4.842324
                   11
    11  H    0.000000
 Stoichiometry    C6HCl4(2)
 Framework group  CS[SG(C6HCl4)]
 Deg. of freedom    19
 Full point group                 CS      NOp   2
 Largest Abelian subgroup         CS      NOp   2
 Largest concise Abelian subgroup C1      NOp   1
                         Standard orientation:                         
 ---------------------------------------------------------------------
 Center     Atomic      Atomic             Coordinates (Angstroms)
 Number     Number       Type             X           Y           Z
 ---------------------------------------------------------------------
      1          6           0        0.000000   -0.779117    0.000000
      2          6           0       -0.668847    0.454164    0.000000
      3          6           0        0.070665    1.643778   -0.000000
      4          6           0        1.433294    1.527848   -0.000000
      5          6           0        2.140545    0.361084   -0.000000
      6          6           0        1.398532   -0.819946   -0.000000
      7         17           0        2.243668   -2.326759   -0.000000
      8         17           0       -0.908284   -2.244827    0.000000
      9         17           0       -2.389822    0.512678    0.000000
     10         17           0       -0.678949    3.196828    0.000000
     11          1           0        3.222433    0.328496   -0.000000
 ---------------------------------------------------------------------
 Rotational constants (GHZ):           1.1863380           0.5459829           0.3739031
 Standard basis: 6-311++G(d,p) (5D, 7F)
 There are   200 symmetry adapted cartesian basis functions of A'  symmetry.
 There are    69 symmetry adapted cartesian basis functions of A"  symmetry.
 There are   190 symmetry adapted basis functions of A'  symmetry.
 There are    69 symmetry adapted basis functions of A"  symmetry.
   259 basis functions,   437 primitive gaussians,   269 cartesian basis functions
    53 alpha electrons       52 beta electrons
       nuclear repulsion energy       833.9881793083 Hartrees.
 NAtoms=   11 NActive=   11 NUniq=   11 SFac= 1.00D+00 NAtFMM=   60 NAOKFM=F Big=F
 Integral buffers will be    131072 words long.
 Raffenetti 2 integral format.
 Two-electron integral symmetry is turned on.
 One-electron integrals computed using PRISM.
 NBasis=   259 RedAO= T EigKep=  3.37D-06  NBF=   190    69
 NBsUse=   257 1.00D-06 EigRej=  7.92D-07 NBFU=   188    69
 Initial guess from the checkpoint file:  "frequency_chks/12345-1234_-ClBzNeutralRadical_Freq.chk"
 B after Tr=     0.000000    0.000000    0.000000
         Rot=    1.000000    0.000000   -0.000000    0.000020 Ang=   0.00 deg.
 Initial guess orbital symmetries:
 Alpha Orbitals:
       Occupied  (A') (A') (A') (A') (A') (A') (A') (A') (A') (A')
                 (A') (A') (A') (A') (A') (A') (A') (A') (A") (A')
                 (A") (A') (A") (A') (A") (A') (A') (A') (A') (A')
                 (A') (A') (A') (A') (A') (A') (A') (A') (A") (A')
                 (A') (A') (A") (A") (A') (A") (A') (A") (A') (A')
                 (A') (A") (A")
       Virtual   (A") (A") (A') (A') (A') (A') (A') (A') (A") (A')
                 (A') (A") (A") (A') (A') (A') (A") (A') (A") (A')
                 (A') (A") (A') (A') (A') (A") (A') (A") (A') (A")
                 (A') (A') (A") (A') (A') (A') (A') (A") (A') (A')
                 (A') (A') (A') (A') (A') (A') (A') (A') (A') (A')
                 (A') (A') (A') (A") (A') (A') (A") (A') (A") (A')
                 (A') (A') (A") (A') (A") (A') (A') (A") (A") (A')
                 (A") (A") (A') (A') (A') (A") (A') (A') (A') (A")
                 (A') (A') (A") (A') (A') (A') (A") (A') (A') (A")
                 (A") (A") (A") (A') (A') (A') (A') (A') (A') (A')
                 (A') (A") (A") (A') (A') (A') (A') (A") (A') (A')
                 (A') (A') (A") (A') (A') (A") (A') (A") (A") (A')
                 (A') (A') (A') (A") (A') (A') (A') (A") (A') (A')
                 (A') (A") (A") (A") (A') (A') (A") (A') (A') (A')
                 (A") (A") (A') (A") (A") (A') (A") (A') (A') (A')
                 (A') (A') (A') (A') (A') (A') (A') (A") (A') (A')
                 (A") (A") (A") (A") (A') (A") (A') (A') (A') (A')
                 (A') (A') (A') (A') (A') (A') (A') (A') (A') (A')
                 (A') (A') (A') (A') (A') (A') (A') (A') (A") (A")
                 (A") (A") (A') (A') (A') (A') (A') (A') (A') (A')
                 (A') (A') (A') (A')
 Beta  Orbitals:
       Occupied  (A') (A') (A') (A') (A') (A') (A') (A') (A') (A')
                 (A') (A') (A') (A') (A') (A') (A') (A') (A") (A')
                 (A") (A') (A") (A') (A") (A') (A') (A') (A') (A')
                 (A') (A') (A') (A') (A') (A') (A') (A') (A") (A')
                 (A') (A') (A") (A") (A") (A') (A') (A') (A") (A')
                 (A") (A")
       Virtual   (A') (A") (A") (A') (A') (A') (A') (A') (A') (A")
                 (A') (A') (A") (A") (A') (A') (A') (A") (A') (A")
                 (A') (A") (A') (A') (A') (A") (A') (A') (A") (A')
                 (A') (A") (A') (A") (A') (A') (A') (A') (A') (A")
                 (A') (A') (A') (A') (A') (A') (A') (A') (A') (A')
                 (A') (A') (A') (A') (A") (A') (A") (A') (A') (A")
                 (A') (A') (A') (A") (A') (A") (A') (A') (A") (A")
                 (A') (A") (A") (A') (A') (A') (A") (A') (A') (A')
                 (A") (A') (A') (A") (A') (A') (A') (A") (A') (A')
                 (A") (A") (A") (A') (A") (A') (A') (A') (A') (A')
                 (A') (A') (A") (A') (A") (A') (A') (A') (A") (A')
                 (A') (A') (A') (A') (A") (A') (A") (A') (A") (A")
                 (A') (A') (A') (A') (A") (A') (A') (A') (A") (A')
                 (A') (A') (A") (A") (A") (A') (A') (A") (A') (A')
                 (A') (A") (A") (A') (A") (A") (A') (A") (A') (A')
                 (A') (A') (A') (A') (A') (A') (A') (A') (A") (A')
                 (A') (A") (A") (A") (A") (A') (A") (A') (A') (A')
                 (A') (A') (A') (A') (A') (A') (A') (A') (A') (A')
                 (A') (A') (A') (A') (A') (A') (A') (A') (A') (A")
                 (A") (A") (A") (A') (A') (A') (A') (A') (A') (A')
                 (A') (A') (A') (A') (A')
 Initial guess <Sx>= 0.0000 <Sy>= 0.0000 <Sz>= 0.5000 <S**2>= 0.7630 S= 0.5065
 Keep R1 and R2 ints in memory in symmetry-blocked form, NReq=892001928.
 Requested convergence on RMS density matrix=1.00D-08 within 128 cycles.
 Requested convergence on MAX density matrix=1.00D-06.
 Requested convergence on             energy=1.00D-06.
 No special actions if energy rises.
 SCF Done:  E(UM062X) =  -2069.89759922     A.U. after   14 cycles
            NFock= 14  Conv=0.84D-08     -V/T= 2.0023
 <Sx>= 0.0000 <Sy>= 0.0000 <Sz>= 0.5000 <S**2>= 0.7631 S= 0.5065
 <L.S>=  0.00000000000    
 Annihilation of the first spin contaminant:
 S**2 before annihilation     0.7631,   after     0.7501
 Calling FoFJK, ICntrl=      2127 FMM=F ISym2X=1 I1Cent= 0 IOpClX= 1 NMat=1 NMatS=1 NMatT=0.
 ***** Axes restored to original set *****
 -------------------------------------------------------------------
 Center     Atomic                   Forces (Hartrees/Bohr)
 Number     Number              X              Y              Z
 -------------------------------------------------------------------
      1        6          -0.001286556    0.000127733    0.000000000
      2        6           0.000913913    0.000476523    0.000000000
      3        6          -0.002101101   -0.000209431   -0.000000000
      4        6           0.001036607    0.000350122    0.000000000
      5        6          -0.000339871   -0.000995776   -0.000000000
      6        6           0.000555269    0.000846129    0.000000000
      7       17          -0.000421403   -0.000156722   -0.000000000
      8       17           0.000395521   -0.000594623   -0.000000000
      9       17           0.000212615   -0.000110037   -0.000000000
     10       17           0.001028902    0.000327429    0.000000000
     11        1           0.000006104   -0.000061349   -0.000000000
 -------------------------------------------------------------------
 Cartesian Forces:  Max     0.002101101 RMS     0.000614470

 GradGradGradGradGradGradGradGradGradGradGradGradGradGradGradGradGradGrad
 Berny optimization.
 Using GEDIIS/GDIIS optimizer.
 FormGI is forming the generalized inverse of G from B-inverse, IUseBI=4.
 Internal  Forces:  Max     0.001058144 RMS     0.000343997
 Search for a local minimum.
 Step number   3 out of a maximum of   57
 All quantities printed in internal units (Hartrees-Bohrs-Radians)
 Mixed Optimization -- En-DIIS/RFO-DIIS
 Update second derivatives using D2CorX and points    1    2    3
 DE= -3.82D-04 DEPred=-3.50D-04 R= 1.09D+00
 TightC=F SS=  1.41D+00  RLast= 5.48D-02 DXNew= 7.1099D-01 1.6439D-01
 Trust test= 1.09D+00 RLast= 5.48D-02 DXMaxT set to 4.23D-01
 ITU=  1  1  0
 Use linear search instead of GDIIS.
     Eigenvalues ---    0.01844   0.01868   0.01878   0.01891   0.01935
     Eigenvalues ---    0.02011   0.02122   0.02370   0.15876   0.19494
     Eigenvalues ---    0.23786   0.25000   0.25000   0.25000   0.25055
     Eigenvalues ---    0.25467   0.31676   0.34679   0.37417   0.37652
     Eigenvalues ---    0.38453   0.39990   0.41276   0.42680   0.43520
     Eigenvalues ---    0.49536   0.51478
 RFO step:  Lambda=-1.69878190D-05 EMin= 1.84357107D-02
 Quartic linear search produced a step of  0.07409.
 Iteration  1 RMS(Cart)=  0.00193053 RMS(Int)=  0.00000263
 Iteration  2 RMS(Cart)=  0.00000274 RMS(Int)=  0.00000085
 Iteration  3 RMS(Cart)=  0.00000000 RMS(Int)=  0.00000085
 ClnCor:  largest displacement from symmetrization is 7.07D-10 for atom     8.
 Variable       Old X    -DE/DX   Delta X   Delta X   Delta X     New X
                                 (Linear)    (Quad)   (Total)
    R1        2.65124   0.00074  -0.00049   0.00195   0.00146   2.65270
    R2        2.64397  -0.00010  -0.00035  -0.00021  -0.00056   2.64341
    R3        3.25850  -0.00063   0.00108  -0.00214  -0.00106   3.25743
    R4        2.64701  -0.00042  -0.00074  -0.00085  -0.00159   2.64542
    R5        3.25405  -0.00012   0.00146  -0.00088   0.00058   3.25463
    R6        2.58430   0.00011   0.00006   0.00009   0.00015   2.58445
    R7        3.25882   0.00106   0.00199   0.00211   0.00410   3.26293
    R8        2.57831   0.00064   0.00043   0.00104   0.00146   2.57977
    R9        2.63575   0.00038  -0.00051   0.00110   0.00059   2.63635
   R10        2.04540   0.00006   0.00015  -0.00011   0.00004   2.04544
   R11        3.26477   0.00044   0.00149   0.00072   0.00221   3.26698
    A1        2.09692  -0.00020  -0.00042  -0.00072  -0.00114   2.09578
    A2        2.08989   0.00064   0.00001   0.00281   0.00281   2.09270
    A3        2.09638  -0.00044   0.00041  -0.00208  -0.00167   2.09471
    A4        2.08848  -0.00026  -0.00010  -0.00121  -0.00131   2.08717
    A5        2.10172   0.00048  -0.00018   0.00220   0.00203   2.10375
    A6        2.09299  -0.00021   0.00027  -0.00099  -0.00072   2.09227
    A7        2.04210   0.00062   0.00112   0.00202   0.00314   2.04524
    A8        2.13572   0.00004  -0.00017   0.00027   0.00010   2.13582
[...]
      8       17           0.000111652   -0.000093097   -0.000000000
      9       17           0.000037638   -0.000190896   -0.000000000
     10       17          -0.000083575   -0.000010584   -0.000000000
     11        1          -0.000008766   -0.000001217   -0.000000000
 -------------------------------------------------------------------
 Cartesian Forces:  Max     0.000279813 RMS     0.000089582
 FormGI is forming the generalized inverse of G from B-inverse, IUseBI=4.

 GradGradGradGradGradGradGradGradGradGradGradGradGradGradGradGradGradGrad
 Berny optimization.
 Internal  Forces:  Max     0.000191920 RMS     0.000052353
 Search for a local minimum.
 Step number   1 out of a maximum of    2
 All quantities printed in internal units (Hartrees-Bohrs-Radians)
 Second derivative matrix not updated -- analytic derivatives used.
 ITU=  0
     Eigenvalues ---    0.01528   0.01597   0.01828   0.02448   0.02759
     Eigenvalues ---    0.02909   0.03376   0.03673   0.10748   0.15334
     Eigenvalues ---    0.15887   0.17556   0.17903   0.19455   0.22980
     Eigenvalues ---    0.24366   0.26048   0.26897   0.29336   0.30614
     Eigenvalues ---    0.36757   0.38519   0.46340   0.46758   0.49279
     Eigenvalues ---    0.51443   0.52551
 Angle between quadratic step and forces=  17.63 degrees.
 Linear search not attempted -- first point.
 Iteration  1 RMS(Cart)=  0.00017831 RMS(Int)=  0.00000001
 Iteration  2 RMS(Cart)=  0.00000002 RMS(Int)=  0.00000000
 ClnCor:  largest displacement from symmetrization is 1.82D-12 for atom    10.
 Variable       Old X    -DE/DX   Delta X   Delta X   Delta X     New X
                                 (Linear)    (Quad)   (Total)
    R1        2.65269   0.00016   0.00000   0.00049   0.00049   2.65318
    R2        2.64379  -0.00008   0.00000  -0.00020  -0.00020   2.64359
    R3        3.25603  -0.00014   0.00000  -0.00055  -0.00055   3.25548
    R4        2.64491  -0.00002   0.00000  -0.00000  -0.00000   2.64490
    R5        3.25377  -0.00019   0.00000  -0.00079  -0.00079   3.25298
    R6        2.58448  -0.00003   0.00000  -0.00003  -0.00003   2.58446
    R7        3.26432  -0.00008   0.00000  -0.00030  -0.00030   3.26402
    R8        2.58003  -0.00008   0.00000  -0.00026  -0.00026   2.57977
    R9        2.63669  -0.00002   0.00000   0.00004   0.00004   2.63673
   R10        2.04537   0.00000   0.00000   0.00000   0.00000   2.04538
   R11        3.26762  -0.00006   0.00000  -0.00018  -0.00018   3.26743
    A1        2.09540  -0.00002   0.00000  -0.00003  -0.00003   2.09537
    A2        2.09169   0.00005   0.00000   0.00002   0.00002   2.09172
    A3        2.09609  -0.00003   0.00000   0.00001   0.00001   2.09610
    A4        2.08670  -0.00003   0.00000  -0.00014  -0.00014   2.08656
    A5        2.10305   0.00007   0.00000   0.00016   0.00016   2.10321
    A6        2.09344  -0.00004   0.00000  -0.00003  -0.00003   2.09341
    A7        2.04628  -0.00001   0.00000  -0.00004  -0.00004   2.04624
    A8        2.13628  -0.00004   0.00000  -0.00018  -0.00018   2.13610
    A9        2.10063   0.00005   0.00000   0.00022   0.00022   2.10085
   A10        2.19858   0.00005   0.00000   0.00021   0.00021   2.19879
   A11        2.03347  -0.00000   0.00000  -0.00009  -0.00009   2.03338
   A12        2.14720   0.00001   0.00000   0.00017   0.00017   2.14737
   A13        2.10251  -0.00001   0.00000  -0.00008  -0.00008   2.10243
   A14        2.10594   0.00002   0.00000   0.00009   0.00009   2.10603
   A15        2.10943  -0.00004   0.00000  -0.00014  -0.00014   2.10930
   A16        2.06781   0.00002   0.00000   0.00005   0.00005   2.06785
    D1       -0.00000  -0.00000   0.00000   0.00000   0.00000   0.00000
    D2        3.14159  -0.00000   0.00000  -0.00000   0.00000   3.14159
    D3        3.14159  -0.00000   0.00000   0.00000   0.00000   3.14159
    D4       -0.00000  -0.00000   0.00000  -0.00000   0.00000   0.00000
    D5        0.00000   0.00000   0.00000   0.00000   0.00000   0.00000
    D6        3.14159  -0.00000   0.00000   0.00000   0.00000   3.14159
    D7        3.14159   0.00000   0.00000   0.00000   0.00000   3.14159
    D8       -0.00000  -0.00000   0.00000   0.00000   0.00000   0.00000
    D9       -0.00000   0.00000   0.00000  -0.00000   0.00000   0.00000
   D10        3.14159  -0.00000   0.00000  -0.00000   0.00000   3.14159
   D11        3.14159  -0.00000   0.00000  -0.00000   0.00000   3.14159
   D12        0.00000  -0.00000   0.00000  -0.00000  -0.00000   0.00000
   D13        0.00000  -0.00000   0.00000   0.00000  -0.00000   0.00000
   D14        3.14159   0.00000   0.00000   0.00000   0.00000   3.14159
   D15       -0.00000  -0.00000   0.00000  -0.00000   0.00000   0.00000
   D16        3.14159  -0.00000   0.00000  -0.00000   0.00000   3.14159
   D17       -0.00000  -0.00000   0.00000  -0.00000   0.00000   0.00000
   D18        3.14159  -0.00000   0.00000  -0.00000   0.00000   3.14159
   D19        3.14159   0.00000   0.00000  -0.00000   0.00000   3.14159
   D20        0.00000  -0.00000   0.00000  -0.00000   0.00000   0.00000
         Item               Value     Threshold  Converged?
 Maximum Force            0.000192     0.000450     YES
 RMS     Force            0.000052     0.000300     YES
 Maximum Displacement     0.000594     0.001800     YES
 RMS     Displacement     0.000178     0.001200     YES
 Predicted change in Energy=-2.193404D-07
 Optimization completed.
    -- Stationary point found.
                           ----------------------------
                           !   Optimized Parameters   !
                           ! (Angstroms and Degrees)  !
 --------------------------                            --------------------------
 ! Name  Definition              Value          Derivative Info.                !
 --------------------------------------------------------------------------------
 ! R1    R(1,2)                  1.4037         -DE/DX =    0.0002              !
 ! R2    R(1,6)                  1.399          -DE/DX =   -0.0001              !
 ! R3    R(1,8)                  1.723          -DE/DX =   -0.0001              !
 ! R4    R(2,3)                  1.3996         -DE/DX =    0.0                 !
 ! R5    R(2,9)                  1.7218         -DE/DX =   -0.0002              !
 ! R6    R(3,4)                  1.3677         -DE/DX =    0.0                 !
 ! R7    R(3,10)                 1.7274         -DE/DX =   -0.0001              !
 ! R8    R(4,5)                  1.3653         -DE/DX =   -0.0001              !
 ! R9    R(5,6)                  1.3953         -DE/DX =    0.0                 !
 ! R10   R(5,11)                 1.0824         -DE/DX =    0.0                 !
 ! R11   R(6,7)                  1.7291         -DE/DX =   -0.0001              !
 ! A1    A(2,1,6)              120.0576         -DE/DX =    0.0                 !
 ! A2    A(2,1,8)              119.8453         -DE/DX =    0.0001              !
 ! A3    A(6,1,8)              120.0971         -DE/DX =    0.0                 !
 ! A4    A(1,2,3)              119.5591         -DE/DX =    0.0                 !
 ! A5    A(1,2,9)              120.4957         -DE/DX =    0.0001              !
 ! A6    A(3,2,9)              119.9452         -DE/DX =    0.0                 !
 ! A7    A(2,3,4)              117.2431         -DE/DX =    0.0                 !
 ! A8    A(2,3,10)             122.3996         -DE/DX =    0.0                 !
 ! A9    A(4,3,10)             120.3573         -DE/DX =    0.0001              !
 ! A10   A(3,4,5)              125.9693         -DE/DX =    0.0                 !
 ! A11   A(4,5,6)              116.5092         -DE/DX =    0.0                 !
 ! A12   A(4,5,11)             123.0256         -DE/DX =    0.0                 !
 ! A13   A(6,5,11)             120.4652         -DE/DX =    0.0                 !
 ! A14   A(1,6,5)              120.6616         -DE/DX =    0.0                 !
 ! A15   A(1,6,7)              120.8617         -DE/DX =    0.0                 !
 ! A16   A(5,6,7)              118.4766         -DE/DX =    0.0                 !
 ! D1    D(6,1,2,3)              0.0            -DE/DX =    0.0                 !
 ! D2    D(6,1,2,9)            180.0            -DE/DX =    0.0                 !
 ! D3    D(8,1,2,3)            180.0            -DE/DX =    0.0                 !
 ! D4    D(8,1,2,9)              0.0            -DE/DX =    0.0                 !
 ! D5    D(2,1,6,5)              0.0            -DE/DX =    0.0                 !
 ! D6    D(2,1,6,7)            180.0            -DE/DX =    0.0                 !
 ! D7    D(8,1,6,5)            180.0            -DE/DX =    0.0                 !
 ! D8    D(8,1,6,7)              0.0            -DE/DX =    0.0                 !
 ! D9    D(1,2,3,4)              0.0            -DE/DX =    0.0                 !
 ! D10   D(1,2,3,10)           180.0            -DE/DX =    0.0                 !
 ! D11   D(9,2,3,4)            180.0            -DE/DX =    0.0                 !
 ! D12   D(9,2,3,10)             0.0            -DE/DX =    0.0                 !
 ! D13   D(2,3,4,5)              0.0            -DE/DX =    0.0                 !
 ! D14   D(10,3,4,5)           180.0            -DE/DX =    0.0                 !
 ! D15   D(3,4,5,6)              0.0            -DE/DX =    0.0                 !
 ! D16   D(3,4,5,11)           180.0            -DE/DX =    0.0                 !
 ! D17   D(4,5,6,1)              0.0            -DE/DX =    0.0                 !
 ! D18   D(4,5,6,7)            180.0            -DE/DX =    0.0                 !
 ! D19   D(11,5,6,1)           180.0            -DE/DX =    0.0                 !
 ! D20   D(11,5,6,7)             0.0            -DE/DX =    0.0                 !
 --------------------------------------------------------------------------------
 GradGradGradGradGradGradGradGradGradGradGradGradGradGradGradGradGradGrad


 ----------------------------------------------------------------------

 Electric dipole moment (input orientation):
 (Debye = 10**-18 statcoulomb cm , SI units = C m)
                  (au)            (Debye)         (10**-30 SI)
   Tot        0.517579D+00      0.131556D+01      0.438822D+01
   x          0.130344D+00      0.331300D+00      0.110510D+01
   y         -0.500898D+00     -0.127316D+01     -0.424679D+01
   z          0.000000D+00      0.000000D+00      0.000000D+00

 Dipole polarizability, Alpha (input orientation).
 (esu units = cm**3 , SI units = C**2 m**2 J**-1)
 Alpha(0;0):
               (au)            (10**-24 esu)      (10**-40 SI)
   iso        0.113487D+03      0.168170D+02      0.187114D+02
   aniso      0.827108D+02      0.122565D+02      0.136372D+02
   xx         0.144595D+03      0.214267D+02      0.238404D+02
   yx         0.147188D+02      0.218109D+01      0.242680D+01
   yy         0.134511D+03      0.199324D+02      0.221778D+02
   zx         0.000000D+00      0.000000D+00      0.000000D+00
   zy         0.000000D+00      0.000000D+00      0.000000D+00
   zz         0.613548D+02      0.909184D+01      0.101160D+02

 ----------------------------------------------------------------------

 Dipole orientation:
     6         -5.60502317         -1.45853674         -1.79077316
     6         -3.15322128         -0.82052990         -2.57713258
     6         -1.28721775         -0.33495926         -0.76666930
     6         -1.97470788         -0.51385764          1.71826816
     6         -4.32077345         -1.12434983          2.60133646
     6         -6.17247459         -1.60619871          0.78717537
    17         -9.17918509         -2.38860363          1.79952195
    17         -7.91292259         -2.05909734         -4.00767265
    17         -2.43138983         -0.63269523         -5.74425931
    17          1.77259882          0.46126491         -1.57865658
     1         -4.76639914         -1.24031035          4.59420352

 Electric dipole moment (dipole orientation):
 (Debye = 10**-18 statcoulomb cm , SI units = C m)
                  (au)            (Debye)         (10**-30 SI)
   Tot        0.517579D+00      0.131556D+01      0.438822D+01
   x          0.000000D+00      0.000000D+00      0.000000D+00
   y          0.000000D+00      0.000000D+00      0.000000D+00
   z          0.517579D+00      0.131556D+01      0.438822D+01

 Dipole polarizability, Alpha (dipole orientation).
 (esu units = cm**3 , SI units = C**2 m**2 J**-1)
 Alpha(0;0):
               (au)            (10**-24 esu)      (10**-40 SI)
   iso        0.113487D+03      0.168170D+02      0.187114D+02
   aniso      0.827108D+02      0.122565D+02      0.136372D+02
   xx         0.145436D+03      0.215514D+02      0.239791D+02
   yx         0.218796D+02      0.324222D+01      0.360745D+01
   yy         0.670483D+02      0.993553D+01      0.110548D+02
   zx        -0.100592D+02     -0.149063D+01     -0.165855D+01
   zy        -0.261761D+01     -0.387890D+00     -0.431586D+00
   zz         0.127976D+03      0.189641D+02      0.211004D+02

 ----------------------------------------------------------------------
 1\1\GINC-SH02-01N30\Freq\UM062X\6-311++G(d,p)\C6H1Cl4(2)\JLAPIER\10-De
 c-2025\0\\#N Geom=AllCheck Guess=TCheck SCRF=Check GenChk UM062X/6-311
 ++G(d,p) Freq\\Neutral Radical (removed 5) 1234_\\0,2\C,-3.2046965255,
 0.1452703177,0.\C,-2.0120524185,0.8856011338,0.\C,-0.7833358908,0.2153
 75579,0.\C,-0.8159867332,-1.1518850582,0.\C,-1.9397897548,-1.927182505
 4,0.\C,-3.1614305746,-1.2530937487,0.\Cl,-4.6176036672,-2.1855697829,0
 .\Cl,-4.7214176984,0.9627908172,0.\Cl,-2.0521403599,2.6069549289,0.\Cl
 ,0.7276404542,1.0525559913,0.\H,-1.9100268313,-3.0091376726,0.\\Versio
 n=ES64L-G16RevB.01\State=2-A'\HF=-2069.8976116\S2=0.763178\S2-1=0.\S2A
 =0.75008\RMSD=6.329e-09\RMSF=8.958e-05\ZeroPoint=0.0498658\Thermal=0.0
 58871\Dipole=0.1303435,-0.5008982,0.\DipoleDeriv=0.6075668,-0.5256159,
 0.,-0.5418671,-0.1341977,0.,0.,0.,0.0058378,-0.1852681,-0.0039397,0.,0
 .002678,0.9800925,0.,0.,0.,0.002077,0.8355633,0.3954644,0.,0.5272935,0
 .057762,0.,0.,0.,0.0131927,-0.1764106,0.0620324,0.,-0.0634177,-0.02699
 08,0.,0.,0.,-0.0415971,-0.2001746,-0.1132075,0.,-0.015668,-0.0973223,0
 .,0.,0.,-0.0555231,0.673185,0.5997009,0.,0.5250459,0.4336797,0.,0.,0.,
 -0.0310832,-0.5334869,-0.3860641,0.,-0.3530027,-0.2986152,0.,0.,0.,-0.
 0283691,-0.5061888,0.2476772,0.,0.2735269,-0.1150199,0.,0.,0.,-0.00795
 35,0.0140866,0.0189663,0.,-0.0168342,-0.6993823,0.,0.,0.,-0.0081502,-0
 .619177,-0.2770098,0.,-0.3251175,-0.1634409,0.,0.,0.,-0.0090981,0.0903
 044,-0.0180043,0.,-0.012637,0.0634348,0.,0.,0.,0.1606667\Polar=144.594
 5098,14.7187571,134.5106885,0.,0.,61.3548035\Quadrupole=-1.5782417,3.0
 540796,-1.4758379,-1.1951184,0.,0.\PG=CS [SG(C6H1Cl4)]\NImag=0\\0.5617
 5762,0.02150772,0.60518957,0.,0.,0.11040268,-0.24013560,-0.04941568,0.
 ,0.61005894,-0.12499962,-0.15395961,0.,-0.00229864,0.54443147,0.,0.,-0
 .05351331,0.,0.,0.10970013,-0.05554303,-0.03496359,0.,-0.25500259,0.12
 573493,0.,0.53311958,0.03261169,0.07382603,0.,0.04169256,-0.13994177,0
 .,-0.00618069,0.62889807,0.,0.,0.00126663,0.,0.,-0.05624441,0.,0.,0.10
 782509,-0.02042247,-0.03431379,0.,0.03954463,0.02110335,0.,-0.08676819
 ,0.01078180,0.,0.43463076,-0.03372435,-0.06961580,0.,0.09446146,-0.031
 57359,0.,-0.01708504,-0.35752201,0.,0.15948745,0.61241711,0.,0.,0.0009
 9472,0.,0.,0.00906609,0.,0.,-0.05028317,0.,0.,0.06958993,0.03241137,0.
 08832485,0.,-0.08114385,-0.00275916,0.,0.04065306,-0.07725230,0.,-0.28
 020278,-0.11425424,0.,0.62822079,0.02431968,-0.01784214,0.,-0.00165104
 ,0.00281617,0.,-0.03071626,-0.02938129,0.,-0.15588979,-0.19632226,0.,0
 .04137075,0.76126385,0.,0.,0.00340791,0.,0.,0.00411078,0.,0.,0.0024823
 2,0.,0.,-0.04752352,0.,0.,0.11705959,-0.10076072,-0.03154033,0.,0.0429
 0863,-0.02137212,0.,-0.02040054,0.04003190,0.,-0.06966301,-0.04895045,
 0.,-0.25299316,0.14017392,0.,0.56710319,0.04466009,-0.30321894,0.,-0.0
 9106141,-0.03007814,0.,0.03800760,-0.06537719,0.,0.02735187,0.07447390
 ,0.,0.05289571,-0.16873352,0.,-0.04338907,0.59666945,0.,0.,-0.05645209
 ,0.,0.,-0.00067695,0.,0.,0.00334533,0.,0.,0.00990912,0.,0.,-0.05731969
 ,0.,0.,0.11157587,-0.01446335,-0.00876167,0.,0.00034184,0.00103270,0.,
 0.00195860,-0.00141575,0.,-0.00314250,0.00489979,0.,-0.04110527,-0.024
 35786,0.,-0.14469928,-0.06926628,0.,0.19896803,-0.03211381,-0.02135964
 ,0.,0.00425449,-0.00178407,0.,-0.00012316,0.00039795,0.,0.00088739,0.0
 0047887,0.,-0.00010394,0.00398593,0.,-0.06434131,-0.08024576,0.,0.0967
 0025,0.10801914,0.,0.,0.00298563,0.,0.,0.00421735,0.,0.,-0.00123723,0.
 ,0.,0.00461882,0.,0.,0.00487251,0.,0.,-0.02209373,0.,0.,0.01038539,-0.
 16027304,0.06616320,0.,-0.03969753,0.01899257,0.,0.00097012,-0.0040940
 5,0.,-0.00157480,0.00070368,0.,0.00269756,0.00040487,0.,-0.01907640,0.
 01160016,0.,0.00300411,-0.00364111,0.,0.22228491,0.06607902,-0.0736517
 2,0.,-0.00235488,0.00165225,0.,-0.00187156,-0.00136510,0.,0.00080327,0
 .00009461,0.,-0.00314112,-0.00411394,0.,0.03384170,-0.01851498,0.,0.00
 411375,-0.00866605,0.,-0.08916537,0.10449142,0.,0.,-0.02162262,0.,0.,0
 .00299668,0.,0.,0.00422778,0.,0.,-0.00105793,0.,0.,0.00395942,0.,0.,0.
 00318241,0.,0.,-0.00110916,0.,0.,0.01037590,0.00044680,-0.02182069,0.,
 -0.03935376,0.00412484,0.,-0.00059601,0.02454350,0.,-0.00369242,0.0010
 2975,0.,0.00085240,-0.00057968,0.,-0.00319935,0.00066931,0.,0.00003482
 ,-0.00118555,0.,-0.00588182,-0.00948990,0.,0.05603120,-0.00127633,-0.0
 3783556,0.,0.00290608,-0.19359108,0.,0.00268054,-0.03866609,0.,0.00508
 140,0.00083254,0.,-0.00089729,-0.00193327,0.,-0.00209582,0.00383027,0.
 ,-0.00068254,-0.00126257,0.,-0.00117465,-0.00020593,0.,-0.00497928,0.2
 6796378,0.,0.,0.00320228,0.,0.,-0.02305189,0.,0.,0.00422818,0.,0.,0.00
 411185,0.,0.,-0.00136520,0.,0.,0.00428856,0.,0.,0.00007118,0.,0.,-0.00
 107785,0.,0.,0.01095360,0.00047820,0.00341094,0.,-0.03595957,-0.019733
 45,0.,-0.15530247,-0.05716509,0.,-0.01272050,-0.02248453,0.,0.00192647
 ,0.00153802,0.,-0.00059789,0.00085481,0.,-0.00160066,-0.00105680,0.,-0
 .00185887,-0.00018355,0.,-0.00473128,0.00048676,0.,0.21065489,0.001028
 30,-0.00213412,0.,0.00361247,0.00163919,0.,-0.07470386,-0.07086332,0.,
 -0.03198547,-0.02161498,0.,0.00242117,-0.00312606,0.,-0.00055051,0.001
 59059,0.,-0.00099767,-0.00046685,0.,0.00010751,0.00047669,0.,0.0076566
 5,0.00077983,0.,0.09428082,0.09376043,0.,0.,0.00402396,0.,0.,0.0042575
 3,0.,0.,-0.02147399,0.,0.,0.00146794,0.,0.,0.00379438,0.,0.,-0.0005800
 5,0.,0.,-0.00013398,0.,0.,0.00003406,0.,0.,-0.00131667,0.,0.,0.0101634
 7,-0.00349577,0.00140902,0.,-0.00156114,0.00017459,0.,-0.00308854,-0.0
 0355357,0.,0.00401129,-0.02408352,0.,-0.05131660,0.00538740,0.,0.00137
 853,0.02767724,0.,0.00070367,0.00072355,0.,-0.00059425,0.00136863,0.,0
 .00008943,-0.00004887,0.,-0.00028833,-0.00086940,0.,0.05416170,0.00190
 759,0.00060193,0.,-0.00014542,0.00038918,0.,-0.00077892,-0.00000528,0.
 ,-0.00330748,-0.01164840,0.,0.01339557,-0.34661347,0.,-0.00180789,-0.0
 1039567,0.,-0.00126472,0.00090306,0.,0.00010320,-0.00019725,0.,0.00003
 105,0.00008807,0.,0.00005207,-0.00004141,0.,-0.00818506,0.36691923,0.,
 0.,0.00530421,0.,0.,-0.00086198,0.,0.,0.00586347,0.,0.,-0.00089384,0.,
 0.,-0.03347851,0.,0.,0.00482122,0.,0.,-0.00257679,0.,0.,0.00009133,0.,
 0.,-0.00004404,0.,0.,-0.00023664,0.,0.,0.02201159\\0.00025178,0.000087
 80,0.,-0.00010873,-0.00027981,0.,-0.00009956,0.00001197,0.,0.00012244,
 -0.00000581,0.,-0.00007801,-0.00004174,0.,0.00001090,-0.00002113,0.,-0
 .00004186,-0.00004708,0.,-0.00011165,0.00009310,0.,-0.00003764,0.00019
 090,0.,0.00008357,0.00001058,0.,0.00000877,0.00000122,0.\\\@


     "IF I COULD JUST GET IT ON PAPER"
 LIFE AND INK, THEY RUN OUT AT THE SAME TIME,
 OR SO SAID MY OLD FRIEND THE SQUID.
     -- JIMMY BUFFETT, 1981
 Job cpu time:       0 days  0 hours 50 minutes  5.0 seconds.
 Elapsed time:       0 days  0 hours 12 minutes 33.0 seconds.
 File lengths (MBytes):  RWF=    205 Int=      0 D2E=      0 Chk=     34 Scr=      1
 Normal termination of Gaussian 16 at Wed Dec 10 11:21:09 2025.
