 Entering Gaussian System, Link 0=g16
 Initial command:
 /share/software/user/restricted/gaussian/g16.B01/l1.exe "/home/users/jlapier/Chloroaromatics/Gau-3955.inp" -scrdir="/home/users/jlapier/Chloroaromatics/"
 Entering Link 1 = /share/software/user/restricted/gaussian/g16.B01/l1.exe PID=      3956.
  
 Copyright (c) 1988-2017, Gaussian, Inc.  All Rights Reserved.
  
 This is part of the Gaussian(R) 16 program.  It is based on
 the Gaussian(R) 09 system (copyright 2009, Gaussian, Inc.),
 the Gaussian(R) 03 system (copyright 2003, Gaussian, Inc.),
 the Gaussian(R) 98 system (copyright 1998, Gaussian, Inc.),
 the Gaussian(R) 94 system (copyright 1995, Gaussian, Inc.),
 the Gaussian 92(TM) system (copyright 1992, Gaussian, Inc.),
 the Gaussian 90(TM) system (copyright 1990, Gaussian, Inc.),
 the Gaussian 88(TM) system (copyright 1988, Gaussian, Inc.),
 the Gaussian 86(TM) system (copyright 1986, Carnegie Mellon
 University), and the Gaussian 82(TM) system (copyright 1983,
 Carnegie Mellon University). Gaussian is a federally registered
 trademark of Gaussian, Inc.
  
 This software contains proprietary and confidential information,
 including trade secrets, belonging to Gaussian, Inc.
  
 This software is provided under written license and may be
 used, copied, transmitted, or stored only in accord with that
 written license.
  
 The following legend is applicable only to US Government
 contracts under FAR:
  
                    RESTRICTED RIGHTS LEGEND
  
 Use, reproduction and disclosure by the US Government is
 subject to restrictions as set forth in subparagraphs (a)
 and (c) of the Commercial Computer Software - Restricted
 Rights clause in FAR 52.227-19.
  
 Gaussian, Inc.
 340 Quinnipiac St., Bldg. 40, Wallingford CT 06492
  
  
 ---------------------------------------------------------------
 Warning -- This program may not be used in any manner that
 competes with the business of Gaussian, Inc. or will provide
 assistance to any competitor of Gaussian, Inc.  The licensee
 of this program is prohibited from giving any competitor of
 Gaussian, Inc. access to this program.  By using this program,
 the user acknowledges that Gaussian, Inc. is engaged in the
 business of creating and licensing software in the field of
 computational chemistry and represents and warrants to the
 licensee that it is not a competitor of Gaussian, Inc. and that
 it will not use this program in any manner prohibited above.
 ---------------------------------------------------------------
  

 Cite this work as:
 Gaussian 16, Revision B.01,
 M. J. Frisch, G. W. Trucks, H. B. Schlegel, G. E. Scuseria, 
 M. A. Robb, J. R. Cheeseman, G. Scalmani, V. Barone, 
 G. A. Petersson, H. Nakatsuji, X. Li, M. Caricato, A. V. Marenich, 
 J. Bloino, B. G. Janesko, R. Gomperts, B. Mennucci, H. P. Hratchian, 
 J. V. Ortiz, A. F. Izmaylov, J. L. Sonnenberg, D. Williams-Young, 
 F. Ding, F. Lipparini, F. Egidi, J. Goings, B. Peng, A. Petrone, 
 T. Henderson, D. Ranasinghe, V. G. Zakrzewski, J. Gao, N. Rega, 
 G. Zheng, W. Liang, M. Hada, M. Ehara, K. Toyota, R. Fukuda, 
 J. Hasegawa, M. Ishida, T. Nakajima, Y. Honda, O. Kitao, H. Nakai, 
 T. Vreven, K. Throssell, J. A. Montgomery, Jr., J. E. Peralta, 
 F. Ogliaro, M. J. Bearpark, J. J. Heyd, E. N. Brothers, K. N. Kudin, 
 V. N. Staroverov, T. A. Keith, R. Kobayashi, J. Normand, 
 K. Raghavachari, A. P. Rendell, J. C. Burant, S. S. Iyengar, 
 J. Tomasi, M. Cossi, J. M. Millam, M. Klene, C. Adamo, R. Cammi, 
 J. W. Ochterski, R. L. Martin, K. Morokuma, O. Farkas, 
 J. B. Foresman, and D. J. Fox, Gaussian, Inc., Wallingford CT, 2016.
 
 ******************************************
 Gaussian 16:  ES64L-G16RevB.01 20-Dec-2017
                10-Dec-2025 
 ******************************************
 %mem=8GB
 %nprocshare=4
 Will use up to    4 processors via shared memory.
 %oldchk=geometry_chks/123456-_23456-ClBzNeutralRadical.chk
 %chk=frequency_chks/123456-_23456-ClBzNeutralRadical_Freq.chk
 Copying data from "geometry_chks/123456-_23456-ClBzNeutralRadical.chk" to current chk file "frequency_chks/123456-_23456-ClBzNeutralRadical_Freq.chk"
 IOpt=  2 FromEx=T IUOpen= 4 IOptOp= 5 NList=   0 IFRang= 0 IUIn= 4 IUOut= 2.
 -------------------------------------------------------
 # opt freq 6-311++g(d,p) guess=read geom=allcheck m062x
 -------------------------------------------------------
 1/18=20,19=15,26=3,29=7,38=1/1,3;
 2/9=110,12=2,40=1/2;
 3/5=4,6=6,7=1111,11=2,14=-4,25=1,30=1,71=1,74=-55,116=-2/1,2,3;
 4/5=1/1;
 5/5=2,38=6/2;
 6/7=2,8=2,9=2,10=2,28=1/1;
 7//1,2,3,16;
 1/18=20,19=15,26=3/3(2);
 2/9=110/2;
 99//99;
 2/9=110/2;
 3/5=4,6=6,7=1111,11=2,14=-2,25=1,30=1,71=1,74=-55/1,2,3;
 4/5=5,16=3,69=1/1;
 5/5=2,38=5/2;
 7//1,2,3,16;
 1/18=20,19=15,26=3/3(-5);
 2/9=110/2;
 6/7=2,8=2,9=2,10=2,19=2,28=1/1;
 99/9=1/99;
 Structure from the checkpoint file:  "frequency_chks/123456-_23456-ClBzNeutralRadical_Freq.chk"
 ----------------------------------
 Neutral Radical (removed 1) _23456
 ----------------------------------
 Charge =  0 Multiplicity = 2
 Redundant internal coordinates found in file.  (old form).
 C,0,-3.2197629527,0.221775424,0.
 C,0,-2.0065306072,0.9611162563,0.
 C,0,-0.7709584018,0.2688515696,0.
 C,0,-0.7114497119,-1.1461847041,0.
 C,0,-1.9190852026,-1.8946330216,0.
 C,0,-3.0679967102,-1.1428357389,0.
 Cl,0,-4.7332794815,0.9442674844,0.
 Cl,0,-2.051717842,2.6445250774,0.
 Cl,0,0.6690417768,1.1538306088,0.
 Cl,0,0.7700253373,-1.9468963185,0.
 Cl,0,-1.9581562041,-3.5712966373,0.
 Recover connectivity data from disk.

 GradGradGradGradGradGradGradGradGradGradGradGradGradGradGradGradGradGrad
 Berny optimization.
 Initialization pass.
                           ----------------------------
                           !    Initial Parameters    !
                           ! (Angstroms and Degrees)  !
 --------------------------                            --------------------------
 ! Name  Definition              Value          Derivative Info.                !
 --------------------------------------------------------------------------------
 ! R1    R(1,2)                  1.4208         estimate D2E/DX2                !
 ! R2    R(1,6)                  1.373          estimate D2E/DX2                !
 ! R3    R(1,7)                  1.6771         estimate D2E/DX2                !
 ! R4    R(2,3)                  1.4163         estimate D2E/DX2                !
 ! R5    R(2,8)                  1.684          estimate D2E/DX2                !
 ! R6    R(3,4)                  1.4163         estimate D2E/DX2                !
 ! R7    R(3,9)                  1.6902         estimate D2E/DX2                !
 ! R8    R(4,5)                  1.4208         estimate D2E/DX2                !
 ! R9    R(4,10)                 1.684          estimate D2E/DX2                !
 ! R10   R(5,6)                  1.373          estimate D2E/DX2                !
 ! R11   R(5,11)                 1.6771         estimate D2E/DX2                !
 ! A1    A(2,1,6)              115.0119         estimate D2E/DX2                !
 ! A2    A(2,1,7)              123.124          estimate D2E/DX2                !
 ! A3    A(6,1,7)              121.8641         estimate D2E/DX2                !
 ! A4    A(1,2,3)              119.381          estimate D2E/DX2                !
 ! A5    A(1,2,8)              119.8204         estimate D2E/DX2                !
 ! A6    A(3,2,8)              120.7986         estimate D2E/DX2                !
 ! A7    A(2,3,4)              121.6691         estimate D2E/DX2                !
 ! A8    A(2,3,9)              119.1654         estimate D2E/DX2                !
 ! A9    A(4,3,9)              119.1655         estimate D2E/DX2                !
 ! A10   A(3,4,5)              119.381          estimate D2E/DX2                !
 ! A11   A(3,4,10)             120.7986         estimate D2E/DX2                !
 ! A12   A(5,4,10)             119.8204         estimate D2E/DX2                !
 ! A13   A(4,5,6)              115.0119         estimate D2E/DX2                !
 ! A14   A(4,5,11)             123.124          estimate D2E/DX2                !
 ! A15   A(6,5,11)             121.8641         estimate D2E/DX2                !
 ! A16   A(1,6,5)              129.5451         estimate D2E/DX2                !
 ! D1    D(6,1,2,3)              0.0            estimate D2E/DX2                !
 ! D2    D(6,1,2,8)            180.0            estimate D2E/DX2                !
 ! D3    D(7,1,2,3)            180.0            estimate D2E/DX2                !
 ! D4    D(7,1,2,8)              0.0            estimate D2E/DX2                !
 ! D5    D(2,1,6,5)              0.0            estimate D2E/DX2                !
 ! D6    D(7,1,6,5)            180.0            estimate D2E/DX2                !
 ! D7    D(1,2,3,4)              0.0            estimate D2E/DX2                !
 ! D8    D(1,2,3,9)            180.0            estimate D2E/DX2                !
 ! D9    D(8,2,3,4)            180.0            estimate D2E/DX2                !
 ! D10   D(8,2,3,9)              0.0            estimate D2E/DX2                !
 ! D11   D(2,3,4,5)              0.0            estimate D2E/DX2                !
 ! D12   D(2,3,4,10)           180.0            estimate D2E/DX2                !
 ! D13   D(9,3,4,5)            180.0            estimate D2E/DX2                !
 ! D14   D(9,3,4,10)             0.0            estimate D2E/DX2                !
 ! D15   D(3,4,5,6)              0.0            estimate D2E/DX2                !
 ! D16   D(3,4,5,11)           180.0            estimate D2E/DX2                !
 ! D17   D(10,4,5,6)           180.0            estimate D2E/DX2                !
 ! D18   D(10,4,5,11)            0.0            estimate D2E/DX2                !
 ! D19   D(4,5,6,1)              0.0            estimate D2E/DX2                !
 ! D20   D(11,5,6,1)           180.0            estimate D2E/DX2                !
 --------------------------------------------------------------------------------
 Trust Radius=3.00D-01 FncErr=1.00D-07 GrdErr=1.00D-06 EigMax=2.50D+02 EigMin=1.00D-04
 Number of steps in this run=     57 maximum allowed number of steps=    100.
 GradGradGradGradGradGradGradGradGradGradGradGradGradGradGradGradGradGrad

                          Input orientation:                          
 ---------------------------------------------------------------------
 Center     Atomic      Atomic             Coordinates (Angstroms)
 Number     Number       Type             X           Y           Z
 ---------------------------------------------------------------------
      1          6           0       -3.219763    0.221775    0.000000
      2          6           0       -2.006531    0.961116    0.000000
      3          6           0       -0.770958    0.268852    0.000000
      4          6           0       -0.711450   -1.146185   -0.000000
      5          6           0       -1.919085   -1.894633   -0.000000
      6          6           0       -3.067997   -1.142836   -0.000000
      7         17           0       -4.733279    0.944267    0.000000
      8         17           0       -2.051718    2.644525    0.000000
      9         17           0        0.669042    1.153831    0.000000
     10         17           0        0.770025   -1.946896   -0.000000
     11         17           0       -1.958156   -3.571297   -0.000000
 ---------------------------------------------------------------------
                    Distance matrix (angstroms):
                    1          2          3          4          5
     1  C    0.000000
     2  C    1.420760   0.000000
     3  C    2.449257   1.416287   0.000000
     4  C    2.857088   2.473449   1.416287   0.000000
     5  C    2.484139   2.857088   2.449257   1.420760   0.000000
     6  C    1.373025   2.356549   2.696154   2.356549   1.373025
     7  Cl   1.677119   2.726801   4.019474   4.532671   3.997380
     8  Cl   2.689618   1.684015   2.698920   4.020671   4.541095
     9  Cl   3.998941   2.682504   1.690204   2.682504   3.998941
    10  Cl   4.541095   4.020672   2.698920   1.684015   2.689618
    11  Cl   3.997380   4.532671   4.019475   2.726801   1.677119
                    6          7          8          9         10
     6  C    0.000000
     7  Cl   2.670050   0.000000
     8  Cl   3.921342   3.175161   0.000000
     9  Cl   4.386358   5.406384   3.102371   0.000000
    10  Cl   3.921342   6.216526   5.389191   3.102371   0.000000
    11  Cl   2.670050   5.300154   6.216526   5.406385   3.175162
                   11
    11  Cl   0.000000
 Stoichiometry    C6Cl5(2)
 Framework group  CS[SG(C6Cl5)]
 Deg. of freedom    19
 Full point group                 CS      NOp   2
 Largest Abelian subgroup         CS      NOp   2
 Largest concise Abelian subgroup C1      NOp   1
                         Standard orientation:                         
 ---------------------------------------------------------------------
 Center     Atomic      Atomic             Coordinates (Angstroms)
 Number     Number       Type             X           Y           Z
 ---------------------------------------------------------------------
      1          6           0       -1.130645    1.242070   -0.000000
      2          6           0        0.290105    1.236725   -0.000000
      3          6           0        0.980308   -0.000000   -0.000000
      4          6           0        0.290105   -1.236725    0.000000
      5          6           0       -1.130645   -1.242070    0.000000
      6          6           0       -1.715846    0.000000    0.000000
      7         17           0       -2.041821    2.650077   -0.000000
      8         17           0        1.133028    2.694596   -0.000000
      9         17           0        2.670512    0.000000   -0.000000
     10         17           0        1.133028   -2.694596    0.000000
     11         17           0       -2.041822   -2.650077    0.000000
 ---------------------------------------------------------------------
 Rotational constants (GHZ):           0.7115011           0.4711252           0.2834421
 Standard basis: 6-311++G(d,p) (5D, 7F)
 There are   217 symmetry adapted cartesian basis functions of A'  symmetry.
 There are    76 symmetry adapted cartesian basis functions of A"  symmetry.
 There are   206 symmetry adapted basis functions of A'  symmetry.
 There are    76 symmetry adapted basis functions of A"  symmetry.
   282 basis functions,   481 primitive gaussians,   293 cartesian basis functions
    61 alpha electrons       60 beta electrons
       nuclear repulsion energy      1062.8292777718 Hartrees.
 NAtoms=   11 NActive=   11 NUniq=   11 SFac= 1.00D+00 NAtFMM=   60 NAOKFM=F Big=F
 Integral buffers will be    131072 words long.
 Raffenetti 2 integral format.
 Two-electron integral symmetry is turned on.
 One-electron integrals computed using PRISM.
 NBasis=   282 RedAO= T EigKep=  2.43D-06  NBF=   206    76
 NBsUse=   280 1.00D-06 EigRej=  4.48D-07 NBFU=   204    76
 Initial guess from the checkpoint file:  "frequency_chks/123456-_23456-ClBzNeutralRadical_Freq.chk"
 B after Tr=    -0.000000    0.000000   -0.000000
         Rot=    1.000000   -0.000000    0.000000   -0.000000 Ang=   0.00 deg.
 Initial guess orbital symmetries:
 Alpha Orbitals:
       Occupied  (A') (A') (A') (A') (A') (A') (A') (A') (A') (A')
                 (A') (A') (A') (A') (A") (A') (A') (A") (A") (A")
                 (A') (A") (A') (A') (A') (A') (A") (A') (A") (A")
                 (A") (A") (A') (A') (A') (A') (A') (A") (A') (A')
                 (A') (A') (A') (A') (A') (A') (A') (A') (A') (A')
                 (A') (A') (A') (A') (A') (A') (A') (A') (A') (A')
                 (A')
       Virtual   (A') (A') (A') (A') (A') (A') (A') (A') (A') (A')
                 (A') (A') (A') (A') (A') (A') (A') (A') (A') (A')
                 (A') (A') (A') (A') (A') (A') (A') (A') (A') (A')
                 (A') (A') (A') (A') (A') (A') (A') (A') (A') (A')
                 (A') (A') (A') (A') (A') (A') (A') (A') (A') (A')
                 (A') (A') (A') (A') (A') (A') (A') (A') (A') (A')
                 (A') (A') (A') (A') (A') (A') (A') (A') (A') (A')
                 (A') (A') (A') (A') (A') (A') (A') (A') (A') (A')
                 (A') (A') (A') (A') (A') (A') (A') (A') (A') (A')
                 (A') (A') (A') (A') (A') (A') (A') (A') (A') (A')
                 (A') (A') (A') (A') (A') (A') (A') (A') (A') (A')
                 (A') (A') (A') (A') (A') (A') (A') (A') (A') (A')
                 (A') (A') (A') (A') (A') (A') (A') (A') (A') (A')
                 (A') (A') (A') (A') (A') (A') (A') (A') (A') (A')
                 (A') (A') (A') (A') (A') (A') (A') (A') (A') (A')
                 (A') (A') (A') (A') (A") (A") (A") (A") (A") (A")
                 (A") (A") (A") (A") (A") (A") (A") (A") (A") (A")
                 (A") (A") (A") (A") (A") (A") (A") (A") (A") (A")
                 (A") (A") (A") (A") (A") (A") (A") (A") (A") (A")
                 (A") (A") (A") (A") (A") (A") (A") (A") (A") (A")
                 (A") (A") (A") (A") (A") (A") (A") (A") (A") (A")
                 (A") (A") (A") (A") (A") (A") (A") (A") (A")
 Beta  Orbitals:
       Occupied  (A') (A') (A') (A') (A') (A') (A') (A') (A') (A')
                 (A') (A') (A') (A') (A") (A') (A') (A") (A") (A")
                 (A") (A') (A') (A') (A') (A') (A") (A") (A") (A')
                 (A") (A") (A') (A') (A') (A') (A') (A") (A') (A')
                 (A') (A') (A') (A') (A') (A') (A') (A') (A') (A')
                 (A') (A') (A') (A') (A') (A') (A') (A') (A') (A')
       Virtual   (A') (A') (A') (A') (A') (A') (A') (A') (A') (A')
                 (A') (A') (A') (A') (A') (A') (A') (A') (A') (A')
                 (A') (A') (A') (A') (A') (A') (A') (A') (A') (A')
                 (A') (A') (A') (A') (A') (A') (A') (A') (A') (A')
                 (A') (A') (A') (A') (A') (A') (A') (A') (A') (A')
                 (A') (A') (A') (A') (A') (A') (A') (A') (A') (A')
                 (A') (A') (A') (A') (A') (A') (A') (A') (A') (A')
                 (A') (A') (A') (A') (A') (A') (A') (A') (A') (A')
                 (A') (A') (A') (A') (A') (A') (A') (A') (A') (A')
                 (A') (A') (A') (A') (A') (A') (A') (A') (A') (A')
                 (A') (A') (A') (A') (A') (A') (A') (A') (A') (A')
                 (A') (A') (A') (A') (A') (A') (A') (A') (A') (A')
                 (A') (A') (A') (A') (A') (A') (A') (A') (A') (A')
                 (A') (A') (A') (A') (A') (A') (A') (A') (A') (A')
                 (A') (A') (A') (A') (A') (A') (A') (A') (A') (A')
                 (A') (A') (A') (A') (A') (A") (A") (A") (A") (A")
                 (A") (A") (A") (A") (A") (A") (A") (A") (A") (A")
                 (A") (A") (A") (A") (A") (A") (A") (A") (A") (A")
                 (A") (A") (A") (A") (A") (A") (A") (A") (A") (A")
                 (A") (A") (A") (A") (A") (A") (A") (A") (A") (A")
                 (A") (A") (A") (A") (A") (A") (A") (A") (A") (A")
                 (A") (A") (A") (A") (A") (A") (A") (A") (A") (A")
 Initial guess <Sx>= 0.0000 <Sy>= 0.0000 <Sz>= 0.5000 <S**2>= 0.7500 S= 0.5000
 Requested convergence on RMS density matrix=1.00D-08 within 128 cycles.
 Requested convergence on MAX density matrix=1.00D-06.
 Requested convergence on             energy=1.00D-06.
 No special actions if energy rises.
 EnCoef did     5 forward-backward iterations
 EnCoef did     8 forward-backward iterations
 Restarting incremental Fock formation.
 SCF Done:  E(UM062X) =  -2529.48452024     A.U. after   29 cycles
            NFock= 29  Conv=0.39D-08     -V/T= 2.0022
 <Sx>= 0.0000 <Sy>= 0.0000 <Sz>= 0.5000 <S**2>= 0.7640 S= 0.5070
 <L.S>=  0.00000000000    
 Annihilation of the first spin contaminant:
 S**2 before annihilation     0.7640,   after     0.7501

 **********************************************************************

            Population analysis using the SCF Density.

 **********************************************************************

 Orbital symmetries:
 Alpha Orbitals:
       Occupied  (A') (A') (A') (A') (A') (A') (A') (A') (A') (A')
                 (A') (A') (A') (A') (A') (A') (A') (A') (A') (A')
                 (A') (A") (A") (A') (A') (A") (A") (A') (A') (A")
                 (A') (A') (A') (A') (A') (A') (A') (A') (A') (A')
                 (A') (A') (A') (A') (A") (A') (A') (A') (A") (A")
                 (A") (A') (A") (A') (A') (A') (A") (A') (A') (A")
                 (A")
       Virtual   (A") (A") (A') (A') (A') (A') (A') (A') (A") (A')
                 (A') (A') (A") (A") (A') (A') (A") (A') (A") (A')
                 (A') (A") (A') (A') (A') (A") (A") (A") (A') (A')
                 (A') (A') (A") (A') (A') (A') (A") (A') (A') (A')
                 (A') (A") (A') (A') (A') (A') (A') (A') (A') (A')
                 (A') (A') (A') (A') (A') (A') (A") (A') (A") (A')
                 (A") (A') (A') (A') (A') (A") (A') (A") (A') (A')
                 (A") (A') (A") (A") (A') (A") (A") (A') (A') (A')
                 (A') (A") (A') (A') (A") (A') (A") (A') (A") (A')
                 (A') (A') (A") (A') (A") (A') (A") (A") (A') (A")
                 (A') (A") (A') (A') (A') (A') (A') (A') (A') (A")
                 (A') (A') (A') (A") (A') (A') (A') (A') (A') (A")
                 (A') (A') (A') (A") (A") (A') (A') (A') (A") (A")
                 (A') (A') (A') (A') (A') (A') (A") (A") (A') (A')
                 (A') (A") (A') (A") (A") (A') (A') (A') (A') (A")
                 (A") (A') (A") (A") (A") (A') (A") (A') (A') (A')
                 (A') (A') (A') (A') (A') (A') (A') (A") (A') (A')
                 (A") (A") (A") (A") (A') (A') (A") (A') (A') (A')
                 (A') (A') (A') (A') (A') (A') (A') (A') (A') (A')
                 (A') (A') (A') (A') (A') (A') (A') (A') (A') (A")
                 (A") (A") (A") (A") (A') (A') (A') (A') (A') (A')
                 (A') (A') (A') (A') (A') (A') (A') (A') (A')
 Beta  Orbitals:
       Occupied  (A') (A') (A') (A') (A') (A') (A') (A') (A') (A')
                 (A') (A') (A') (A') (A') (A') (A') (A') (A') (A')
                 (A') (A") (A") (A') (A') (A") (A") (A') (A') (A")
                 (A') (A') (A') (A') (A') (A') (A') (A') (A') (A')
                 (A') (A') (A') (A') (A") (A') (A') (A') (A") (A")
                 (A") (A") (A') (A') (A') (A') (A") (A') (A") (A")
       Virtual   (A') (A") (A") (A') (A') (A') (A') (A') (A') (A")
                 (A') (A') (A') (A") (A") (A') (A') (A") (A') (A")
                 (A') (A') (A") (A') (A') (A') (A") (A') (A") (A')
                 (A") (A') (A') (A") (A') (A') (A') (A") (A') (A')
                 (A') (A') (A") (A') (A') (A') (A') (A') (A') (A')
                 (A') (A') (A') (A') (A') (A') (A') (A') (A") (A")
                 (A') (A") (A') (A') (A') (A') (A") (A') (A") (A')
                 (A') (A") (A') (A') (A") (A") (A") (A") (A') (A')
                 (A') (A') (A") (A') (A') (A") (A') (A") (A') (A")
                 (A') (A') (A') (A") (A') (A") (A') (A') (A") (A")
                 (A") (A') (A") (A') (A') (A') (A') (A') (A') (A')
                 (A") (A') (A') (A') (A") (A') (A') (A') (A') (A')
                 (A') (A") (A') (A') (A") (A") (A') (A') (A') (A")
                 (A") (A') (A') (A') (A') (A') (A') (A") (A") (A')
                 (A') (A') (A") (A') (A") (A") (A') (A') (A') (A')
                 (A") (A") (A') (A") (A") (A") (A') (A") (A') (A')
                 (A') (A') (A') (A') (A') (A') (A') (A') (A") (A')
                 (A') (A") (A") (A") (A") (A') (A') (A") (A') (A')
                 (A') (A') (A') (A') (A') (A') (A') (A') (A') (A')
                 (A') (A') (A') (A') (A') (A') (A') (A') (A') (A')
                 (A") (A") (A") (A") (A") (A') (A') (A') (A') (A')
                 (A') (A') (A') (A') (A') (A') (A') (A') (A') (A')
 The electronic state is 2-A'.
 Alpha  occ. eigenvalues -- -102.71027-102.71027-102.70869-102.70869-102.70609
 Alpha  occ. eigenvalues --  -10.65798 -10.65790 -10.65553 -10.65402 -10.65402
 Alpha  occ. eigenvalues --  -10.62180  -9.85354  -9.85354  -9.85207  -9.85207
 Alpha  occ. eigenvalues --   -9.84959  -7.57924  -7.57924  -7.57748  -7.57748
 Alpha  occ. eigenvalues --   -7.57491  -7.57164  -7.57164  -7.57156  -7.57156
 Alpha  occ. eigenvalues --   -7.57041  -7.57041  -7.57003  -7.57003  -7.56776
 Alpha  occ. eigenvalues --   -7.56749  -1.08570  -1.04445  -1.02744  -0.99685
 Alpha  occ. eigenvalues --   -0.97938  -0.94288  -0.84473  -0.83805  -0.71647
 Alpha  occ. eigenvalues --   -0.71560  -0.63652  -0.60811  -0.56776  -0.55295
 Alpha  occ. eigenvalues --   -0.55031  -0.52849  -0.51161  -0.49150  -0.47689
 Alpha  occ. eigenvalues --   -0.43946  -0.43371  -0.42778  -0.42301  -0.41349
 Alpha  occ. eigenvalues --   -0.41188  -0.39313  -0.38518  -0.35658  -0.32686
 Alpha  occ. eigenvalues --   -0.31243
 Alpha virt. eigenvalues --   -0.03408  -0.02827  -0.00044   0.01719   0.01831
 Alpha virt. eigenvalues --    0.02820   0.04040   0.04432   0.04764   0.05730
 Alpha virt. eigenvalues --    0.06099   0.06334   0.07103   0.07268   0.08690
 Alpha virt. eigenvalues --    0.08802   0.09956   0.10068   0.10189   0.10511
 Alpha virt. eigenvalues --    0.10915   0.10926   0.12298   0.12853   0.13110
 Alpha virt. eigenvalues --    0.13534   0.15224   0.15587   0.15635   0.15757
 Alpha virt. eigenvalues --    0.15868   0.16282   0.16901   0.17921   0.18580
 Alpha virt. eigenvalues --    0.19405   0.19738   0.21297   0.21705   0.22438
 Alpha virt. eigenvalues --    0.22890   0.23607   0.23807   0.24295   0.25402
 Alpha virt. eigenvalues --    0.26656   0.27169   0.27291   0.28615   0.28693
 Alpha virt. eigenvalues --    0.29197   0.30004   0.30605   0.32103   0.40579
 Alpha virt. eigenvalues --    0.41373   0.43392   0.43770   0.45543   0.45543
 Alpha virt. eigenvalues --    0.46915   0.48508   0.48591   0.49419   0.49588
 Alpha virt. eigenvalues --    0.49721   0.49739   0.50855   0.51435   0.52586
 Alpha virt. eigenvalues --    0.53226   0.55792   0.59388   0.60261   0.60504
 Alpha virt. eigenvalues --    0.62345   0.63245   0.63758   0.65352   0.65616
 Alpha virt. eigenvalues --    0.66251   0.68353   0.68645   0.70243   0.75530
 Alpha virt. eigenvalues --    0.77638   0.82070   0.84350   0.85712   0.86607
 Alpha virt. eigenvalues --    0.86757   0.86916   0.87601   0.88527   0.88717
 Alpha virt. eigenvalues --    0.89215   0.90379   0.90399   0.90474   0.92239
 Alpha virt. eigenvalues --    0.93613   0.93768   0.94172   0.96035   0.96151
 Alpha virt. eigenvalues --    0.96916   0.97188   0.98235   0.99098   1.00459
 Alpha virt. eigenvalues --    1.02251   1.03199   1.05535   1.06699   1.06827
 Alpha virt. eigenvalues --    1.11217   1.15709   1.20926   1.22340   1.24311
 Alpha virt. eigenvalues --    1.25814   1.27082   1.28112   1.30965   1.32268
 Alpha virt. eigenvalues --    1.33016   1.33152   1.34282   1.35250   1.36287
 Alpha virt. eigenvalues --    1.46532   1.47177   1.48801   1.54899   1.70778
 Alpha virt. eigenvalues --    1.70820   1.76730   1.79419   1.79714   1.79970
 Alpha virt. eigenvalues --    1.83202   1.84745   1.86133   1.91514   1.97464
 Alpha virt. eigenvalues --    2.10116   2.11393   2.19553   2.21967   2.25213
 Alpha virt. eigenvalues --    2.25976   2.27087   2.27190   2.28315   2.30575
 Alpha virt. eigenvalues --    2.33678   2.34303   2.34439   2.39940   2.40965
 Alpha virt. eigenvalues --    2.42493   2.48580   2.48802   2.49427   2.51481
 Alpha virt. eigenvalues --    2.56233   2.58912   2.64374   2.65772   2.66211
 Alpha virt. eigenvalues --    2.77861   2.80133   2.88816   2.91259   2.91371
 Alpha virt. eigenvalues --    3.03253   3.08697   3.10701   3.19766   3.20907
 Alpha virt. eigenvalues --    3.25565   3.30041   3.47476   3.61000   3.70504
 Alpha virt. eigenvalues --    3.92414   3.94109   4.73796   9.88418   9.97416
 Alpha virt. eigenvalues --    9.98643  10.00390  10.01202  23.29911  23.80323
 Alpha virt. eigenvalues --   23.84133  23.95582  23.95735  24.14087  25.85273
 Alpha virt. eigenvalues --   25.88356  25.91278  25.94630  26.00982  26.14020
 Alpha virt. eigenvalues --   26.15630  26.21893  26.26721  26.36718  26.43634
 Alpha virt. eigenvalues --   26.63429  26.73851  26.89119  27.02541 215.97635
 Alpha virt. eigenvalues --  216.07693 216.09151 216.11328 216.12319
  Beta  occ. eigenvalues -- -102.70993-102.70993-102.70846-102.70846-102.70616
  Beta  occ. eigenvalues --  -10.65731 -10.65716 -10.65582 -10.65448 -10.65447
  Beta  occ. eigenvalues --  -10.61179  -9.85341  -9.85340  -9.85198  -9.85198
  Beta  occ. eigenvalues --   -9.84962  -7.57843  -7.57843  -7.57709  -7.57709
  Beta  occ. eigenvalues --   -7.57491  -7.57171  -7.57171  -7.57124  -7.57124
  Beta  occ. eigenvalues --   -7.57025  -7.57025  -7.56984  -7.56984  -7.56799
  Beta  occ. eigenvalues --   -7.56751  -1.08221  -1.04274  -1.02409  -0.99525
  Beta  occ. eigenvalues --   -0.97809  -0.93550  -0.83493  -0.83115  -0.71295
  Beta  occ. eigenvalues --   -0.70161  -0.63013  -0.60121  -0.56275  -0.54976
  Beta  occ. eigenvalues --   -0.54795  -0.52396  -0.50781  -0.49146  -0.47424
  Beta  occ. eigenvalues --   -0.43923  -0.42750  -0.42404  -0.42259  -0.41060
  Beta  occ. eigenvalues --   -0.40915  -0.38754  -0.38453  -0.31664  -0.31301
  Beta virt. eigenvalues --   -0.10287  -0.03465  -0.01742   0.00126   0.01209
  Beta virt. eigenvalues --    0.01840   0.03129   0.04020   0.04236   0.04640
  Beta virt. eigenvalues --    0.05016   0.06134   0.06413   0.06877   0.07095
  Beta virt. eigenvalues --    0.08688   0.08772   0.09749   0.10127   0.10153
  Beta virt. eigenvalues --    0.10387   0.10619   0.11049   0.12294   0.12849
  Beta virt. eigenvalues --    0.13447   0.13599   0.15544   0.15550   0.15566
  Beta virt. eigenvalues --    0.15618   0.16039   0.16316   0.16909   0.17910
  Beta virt. eigenvalues --    0.18162   0.19300   0.19582   0.21259   0.21609
  Beta virt. eigenvalues --    0.21990   0.22693   0.23481   0.23788   0.24512
  Beta virt. eigenvalues --    0.25488   0.25886   0.27240   0.27354   0.28603
  Beta virt. eigenvalues --    0.28976   0.29524   0.29830   0.30541   0.32754
  Beta virt. eigenvalues --    0.40598   0.41747   0.42820   0.43407   0.45551
  Beta virt. eigenvalues --    0.45800   0.46997   0.48594   0.48618   0.49377
  Beta virt. eigenvalues --    0.49653   0.49746   0.49879   0.50844   0.51445
  Beta virt. eigenvalues --    0.52114   0.53412   0.53817   0.58337   0.59647
  Beta virt. eigenvalues --    0.60283   0.62272   0.63241   0.64080   0.65275
  Beta virt. eigenvalues --    0.66420   0.67653   0.68220   0.69310   0.69474
  Beta virt. eigenvalues --    0.75695   0.77873   0.82141   0.84476   0.85762
  Beta virt. eigenvalues --    0.86500   0.86822   0.87004   0.87631   0.88503
  Beta virt. eigenvalues --    0.88861   0.89300   0.90333   0.90397   0.90448
  Beta virt. eigenvalues --    0.92322   0.93603   0.93887   0.94580   0.95788
  Beta virt. eigenvalues --    0.96157   0.97072   0.97248   0.97835   0.99322
  Beta virt. eigenvalues --    1.00954   1.01970   1.03104   1.05194   1.07175
  Beta virt. eigenvalues --    1.07740   1.11189   1.15508   1.20806   1.22465
  Beta virt. eigenvalues --    1.25026   1.26123   1.27518   1.27709   1.31161
  Beta virt. eigenvalues --    1.32974   1.33009   1.33199   1.34033   1.35753
  Beta virt. eigenvalues --    1.36353   1.46417   1.47599   1.49537   1.57638
  Beta virt. eigenvalues --    1.71034   1.71306   1.77490   1.79369   1.80077
  Beta virt. eigenvalues --    1.80563   1.83851   1.84814   1.86990   1.92315
  Beta virt. eigenvalues --    1.97907   2.11142   2.11564   2.19564   2.22617
  Beta virt. eigenvalues --    2.25227   2.26013   2.27180   2.27599   2.28331
  Beta virt. eigenvalues --    2.30653   2.33704   2.34336   2.34978   2.39896
  Beta virt. eigenvalues --    2.40992   2.42954   2.48939   2.49011   2.49840
  Beta virt. eigenvalues --    2.52104   2.56664   2.58978   2.64505   2.65913
  Beta virt. eigenvalues --    2.66350   2.78386   2.80151   2.89073   2.91063
  Beta virt. eigenvalues --    2.93065   3.05783   3.08744   3.10950   3.19788
  Beta virt. eigenvalues --    3.20908   3.25774   3.30480   3.47986   3.61087
  Beta virt. eigenvalues --    3.70880   3.93165   3.94254   4.74024   9.88429
  Beta virt. eigenvalues --    9.97422   9.98648  10.00398  10.01205  23.30027
  Beta virt. eigenvalues --   23.80454  23.84172  23.95602  23.95741  24.14960
  Beta virt. eigenvalues --   25.85284  25.88381  25.91253  25.94657  26.00990
  Beta virt. eigenvalues --   26.14083  26.15673  26.21960  26.26763  26.36748
  Beta virt. eigenvalues --   26.43720  26.63598  26.73962  26.89275  27.02609
  Beta virt. eigenvalues --  215.97664 216.07738 216.09185 216.11371 216.12333
          Condensed to atoms (all electrons):
               1          2          3          4          5          6
     1  C   17.724554  -4.466160  -3.242656   2.131715  -4.723737   0.527117
     2  C   -4.466160  18.460269  -0.932435  -1.732293   2.131715  -7.332706
     3  C   -3.242656  -0.932435  13.175365  -0.932439  -3.242657   1.882388
     4  C    2.131715  -1.732293  -0.932439  18.460257  -4.466149  -7.332700
     5  C   -4.723737   2.131715  -3.242657  -4.466149  17.724549   0.527112
     6  C    0.527117  -7.332706   1.882388  -7.332700   0.527112  19.348165
     7  Cl  -0.437182   0.205852  -0.170541   0.323370  -0.443898  -0.283115
     8  Cl  -0.648863  -0.231234   0.407838  -0.323127   0.421395  -0.321989
     9  Cl  -0.091184  -0.044733  -0.872539  -0.044733  -0.091184   0.430155
    10  Cl   0.421395  -0.323127   0.407838  -0.231234  -0.648863  -0.321989
    11  Cl  -0.443898   0.323370  -0.170541   0.205851  -0.437182  -0.283115
               7          8          9         10         11
     1  C   -0.437182  -0.648863  -0.091184   0.421395  -0.443898
     2  C    0.205852  -0.231234  -0.044733  -0.323127   0.323370
     3  C   -0.170541   0.407838  -0.872539   0.407838  -0.170541
     4  C    0.323370  -0.323127  -0.044733  -0.231234   0.205851
     5  C   -0.443898   0.421395  -0.091184  -0.648863  -0.437182
     6  C   -0.283115  -0.321989   0.430155  -0.321989  -0.283115
     7  Cl  17.602316  -0.301472   0.015600  -0.001548  -0.034314
     8  Cl  -0.301472  17.778690  -0.358837   0.013786  -0.001548
     9  Cl   0.015600  -0.358837  17.813100  -0.358837   0.015600
    10  Cl  -0.001548   0.013786  -0.358837  17.778689  -0.301472
    11  Cl  -0.034314  -0.001548   0.015600  -0.301472  17.602316
          Atomic-Atomic Spin Densities.
               1          2          3          4          5          6
     1  C   -0.259123  -0.080599  -0.186846   0.146745   0.319057   0.069974
     2  C   -0.080599   0.505055  -0.288075   0.230552   0.146745  -0.384881
     3  C   -0.186846  -0.288075   0.563793  -0.288075  -0.186846   0.309747
     4  C    0.146745   0.230552  -0.288075   0.505055  -0.080598  -0.384881
     5  C    0.319057   0.146745  -0.186846  -0.080598  -0.259123   0.069974
     6  C    0.069974  -0.384881   0.309747  -0.384881   0.069974   1.135019
     7  Cl  -0.052159   0.051947   0.059151  -0.016798  -0.020806  -0.033494
     8  Cl   0.098461  -0.065187  -0.101256   0.043235   0.029458  -0.023641
     9  Cl  -0.034640  -0.006840   0.085955  -0.006840  -0.034640   0.000723
    10  Cl   0.029458   0.043235  -0.101256  -0.065187   0.098461  -0.023641
    11  Cl  -0.020806  -0.016797   0.059151   0.051947  -0.052158  -0.033494
               7          8          9         10         11
     1  C   -0.052159   0.098461  -0.034640   0.029458  -0.020806
     2  C    0.051947  -0.065187  -0.006840   0.043235  -0.016797
     3  C    0.059151  -0.101256   0.085955  -0.101256   0.059151
     4  C   -0.016798   0.043235  -0.006840  -0.065187   0.051947
     5  C   -0.020806   0.029458  -0.034640   0.098461  -0.052158
     6  C   -0.033494  -0.023641   0.000723  -0.023641  -0.033494
     7  Cl   0.054168  -0.039209   0.005103  -0.002302   0.003695
     8  Cl  -0.039209   0.081333  -0.011726   0.005373  -0.002302
     9  Cl   0.005103  -0.011726   0.005647  -0.011726   0.005103
    10  Cl  -0.002302   0.005373  -0.011726   0.081333  -0.039209
    11  Cl   0.003695  -0.002302   0.005103  -0.039209   0.054168
 Mulliken charges and spin densities:
               1          2
     1  C   -0.751102   0.029524
     2  C   -0.058517   0.135155
     3  C   -0.309623  -0.074558
     4  C   -0.058518   0.135155
     5  C   -0.751102   0.029524
     6  C   -0.839323   0.701404
     7  Cl   0.524934   0.009299
     8  Cl   0.565362   0.014539
     9  Cl   0.587593  -0.003879
    10  Cl   0.565362   0.014539
    11  Cl   0.524934   0.009299
 Sum of Mulliken charges =  -0.00000   1.00000
 Mulliken charges and spin densities with hydrogens summed into heavy atoms:
               1          2
     1  C   -0.751102   0.029524
     2  C   -0.058517   0.135155
     3  C   -0.309623  -0.074558
     4  C   -0.058518   0.135155
     5  C   -0.751102   0.029524
     6  C   -0.839323   0.701404
     7  Cl   0.524934   0.009299
     8  Cl   0.565362   0.014539
     9  Cl   0.587593  -0.003879
    10  Cl   0.565362   0.014539
    11  Cl   0.524934   0.009299
 Electronic spatial extent (au):  <R**2>=           3317.0028
 Charge=             -0.0000 electrons
 Dipole moment (field-independent basis, Debye):
    X=             -0.1478    Y=              0.0000    Z=             -0.0000  Tot=              0.1478
 Quadrupole moment (field-independent basis, Debye-Ang):
   XX=            -95.7403   YY=            -94.9010   ZZ=            -97.2028
   XY=              0.0000   XZ=              0.0000   YZ=              0.0000
 Traceless Quadrupole moment (field-independent basis, Debye-Ang):
   XX=              0.2077   YY=              1.0471   ZZ=             -1.2548
   XY=              0.0000   XZ=              0.0000   YZ=              0.0000
 Octapole moment (field-independent basis, Debye-Ang**2):
  XXX=             15.0123  YYY=             -0.0000  ZZZ=             -0.0000  XYY=              1.5068
  XXY=              0.0000  XXZ=             -0.0000  XZZ=              2.7757  YZZ=              0.0000
  YYZ=             -0.0000  XYZ=             -0.0000
 Hexadecapole moment (field-independent basis, Debye-Ang**3):
 XXXX=          -1640.4076 YYYY=          -2345.2958 ZZZZ=           -111.1180 XXXY=             -0.0000
 XXXZ=              0.0000 YYYX=             -0.0000 YYYZ=              0.0000 ZZZX=              0.0000
 ZZZY=              0.0000 XXYY=           -645.2867 XXZZ=           -305.5924 YYZZ=           -435.8931
 XXYZ=              0.0000 YYXZ=              0.0000 ZZXY=             -0.0000
 N-N= 1.062829277772D+03 E-N=-8.124741684163D+03  KE= 2.524030261914D+03
 Symmetry A'   KE= 2.287739531309D+03
 Symmetry A"   KE= 2.362907306050D+02
 Symmetry A'   SP= 1.000000000000D+00
 Symmetry A"   SP= 6.920124077313D-15
                          Isotropic Fermi Contact Couplings
        Atom                 a.u.       MegaHertz       Gauss      10(-4) cm-1
     1  C(13)             -0.01531     -17.20824      -6.14033      -5.74005
     2  C(13)              0.05187      58.31389      20.80785      19.45142
     3  C(13)             -0.00974     -10.95367      -3.90854      -3.65375
     4  C(13)              0.05187      58.31392      20.80786      19.45143
     5  C(13)             -0.01531     -17.20824      -6.14033      -5.74005
     6  C(13)              0.45253     508.73103     181.52788     169.69441
     7  Cl(35)             0.01624       7.11891       2.54021       2.37461
     8  Cl(35)             0.00463       2.03101       0.72472       0.67747
     9  Cl(35)             0.00037       0.16159       0.05766       0.05390
    10  Cl(35)             0.00463       2.03101       0.72472       0.67747
    11  Cl(35)             0.01624       7.11890       2.54020       2.37461
 --------------------------------------------------------
       Center         ----  Spin Dipole Couplings  ----
                      3XX-RR        3YY-RR        3ZZ-RR
 --------------------------------------------------------
     1   Atom        0.013159      0.089875     -0.103034
     2   Atom        0.023976     -0.029548      0.005572
     3   Atom        0.037305      0.020227     -0.057532
     4   Atom        0.023976     -0.029548      0.005572
     5   Atom        0.013159      0.089875     -0.103034
     6   Atom        0.963639     -0.575923     -0.387716
     7   Atom       -0.077403      0.232924     -0.155521
     8   Atom        0.068755     -0.036382     -0.032373
     9   Atom        0.030717      0.019708     -0.050424
    10   Atom        0.068755     -0.036382     -0.032373
    11   Atom       -0.077403      0.232924     -0.155521
 --------------------------------------------------------
                        XY            XZ            YZ
 --------------------------------------------------------
     1   Atom        0.054685     -0.000000     -0.000000
     2   Atom        0.001127     -0.000000     -0.000000
     3   Atom       -0.000000     -0.000000     -0.000000
     4   Atom       -0.001127     -0.000000     -0.000000
     5   Atom       -0.054684      0.000000     -0.000000
     6   Atom       -0.000000      0.000000      0.000000
     7   Atom       -0.032386      0.000000     -0.000000
     8   Atom        0.076293     -0.000000     -0.000000
     9   Atom       -0.000000     -0.000000      0.000000
    10   Atom       -0.076293      0.000000     -0.000000
    11   Atom        0.032386      0.000000      0.000000
 --------------------------------------------------------


 ---------------------------------------------------------------------------------
              Anisotropic Spin Dipole Couplings in Principal Axis System
 ---------------------------------------------------------------------------------

       Atom             a.u.   MegaHertz   Gauss  10(-4) cm-1        Axes

              Baa    -0.1030   -13.826    -4.934    -4.612  0.0000  0.0000  1.0000
     1 C(13)  Bbb    -0.0153    -2.050    -0.732    -0.684  0.8872 -0.4614  0.0000
              Bcc     0.1183    15.877     5.665     5.296  0.4614  0.8872 -0.0000
 
              Baa    -0.0296    -3.968    -1.416    -1.324 -0.0210  0.9998 -0.0000
     2 C(13)  Bbb     0.0056     0.748     0.267     0.249  0.0000  0.0000  1.0000
              Bcc     0.0240     3.221     1.149     1.074  0.9998  0.0210  0.0000
 
              Baa    -0.0575    -7.720    -2.755    -2.575  0.0000  0.0000  1.0000
     3 C(13)  Bbb     0.0202     2.714     0.969     0.905  0.0000  1.0000 -0.0000
              Bcc     0.0373     5.006     1.786     1.670  1.0000 -0.0000 -0.0000
 
              Baa    -0.0296    -3.968    -1.416    -1.324  0.0210  0.9998 -0.0000
     4 C(13)  Bbb     0.0056     0.748     0.267     0.249  0.0000  0.0000  1.0000
              Bcc     0.0240     3.221     1.149     1.074  0.9998 -0.0210  0.0000
 
              Baa    -0.1030   -13.826    -4.934    -4.612  0.0000  0.0000  1.0000
     5 C(13)  Bbb    -0.0153    -2.050    -0.732    -0.684  0.8872  0.4614 -0.0000
              Bcc     0.1183    15.877     5.665     5.296 -0.4614  0.8872 -0.0000
 
              Baa    -0.5759   -77.283   -27.577   -25.779  0.0000  1.0000 -0.0000
     6 C(13)  Bbb    -0.3877   -52.028   -18.565   -17.355  0.0000  0.0000  1.0000
              Bcc     0.9636   129.311    46.141    43.134  1.0000 -0.0000 -0.0000
 
              Baa    -0.1555    -8.140    -2.904    -2.715  0.0000  0.0000  1.0000
     7 Cl(35) Bbb    -0.0807    -4.226    -1.508    -1.410  0.9947  0.1027 -0.0000
              Bcc     0.2363    12.366     4.412     4.125 -0.1027  0.9947 -0.0000
 
              Baa    -0.0765    -4.002    -1.428    -1.335 -0.4651  0.8853  0.0000
     8 Cl(35) Bbb    -0.0324    -1.694    -0.605    -0.565  0.0000  0.0000  1.0000
              Bcc     0.1088     5.696     2.033     1.900  0.8853  0.4651 -0.0000
 
              Baa    -0.0504    -2.639    -0.942    -0.880  0.0000  0.0000  1.0000
     9 Cl(35) Bbb     0.0197     1.031     0.368     0.344  0.0000  1.0000 -0.0000
              Bcc     0.0307     1.608     0.574     0.536  1.0000 -0.0000  0.0000
 
              Baa    -0.0765    -4.002    -1.428    -1.335  0.4651  0.8853 -0.0000
    10 Cl(35) Bbb    -0.0324    -1.694    -0.605    -0.565  0.0000  0.0000  1.0000
              Bcc     0.1088     5.696     2.033     1.900  0.8853 -0.4651  0.0000
 
              Baa    -0.1555    -8.140    -2.904    -2.715  0.0000  0.0000  1.0000
    11 Cl(35) Bbb    -0.0807    -4.226    -1.508    -1.410  0.9947 -0.1027  0.0000
              Bcc     0.2363    12.366     4.412     4.125  0.1027  0.9947 -0.0000
 

 ---------------------------------------------------------------------------------

 Calling FoFJK, ICntrl=      2127 FMM=F ISym2X=1 I1Cent= 0 IOpClX= 1 NMat=1 NMatS=1 NMatT=0.
 ***** Axes restored to original set *****
 -------------------------------------------------------------------
 Center     Atomic                   Forces (Hartrees/Bohr)
 Number     Number              X              Y              Z
 -------------------------------------------------------------------
      1        6           0.041193453   -0.014058270   -0.000000000
      2        6          -0.003153392   -0.029127526   -0.000000000
      3        6          -0.021718546   -0.013347527    0.000000000
      4        6          -0.027411171    0.010343462    0.000000000
      5        6           0.006064832    0.043101758    0.000000000
      6        6          -0.004204596   -0.002584139   -0.000000000
      7       17          -0.021589800    0.009940570    0.000000000
      8       17          -0.000746806    0.019568299    0.000000000
      9       17           0.015328625    0.009420467   -0.000000000
     10       17           0.017120854   -0.009505266   -0.000000000
     11       17          -0.000883453   -0.023751828   -0.000000000
 -------------------------------------------------------------------
 Cartesian Forces:  Max     0.043101758 RMS     0.015954984

 GradGradGradGradGradGradGradGradGradGradGradGradGradGradGradGradGradGrad
 Berny optimization.
 FormGI is forming the generalized inverse of G from B-inverse, IUseBI=4.
 Internal  Forces:  Max     0.023766060 RMS     0.008038856
 Search for a local minimum.
 Step number   1 out of a maximum of   57
 All quantities printed in internal units (Hartrees-Bohrs-Radians)
 Mixed Optimization -- RFO/linear search
 Second derivative matrix not updated -- first step.
 ITU=  0
     Eigenvalues ---    0.01839   0.01843   0.01858   0.01873   0.01902
     Eigenvalues ---    0.01997   0.02049   0.02350   0.25000   0.25000
     Eigenvalues ---    0.25000   0.25000   0.25000   0.25000   0.25000
     Eigenvalues ---    0.25000   0.37096   0.37885   0.37885   0.38791
     Eigenvalues ---    0.38791   0.39849   0.41070   0.42346   0.42914
     Eigenvalues ---    0.48626   0.50002
 RFO step:  Lambda=-7.80873264D-03 EMin= 1.83887600D-02
 Linear search not attempted -- first point.
 Iteration  1 RMS(Cart)=  0.01370856 RMS(Int)=  0.00011171
 Iteration  2 RMS(Cart)=  0.00013177 RMS(Int)=  0.00002478
 Iteration  3 RMS(Cart)=  0.00000002 RMS(Int)=  0.00002478
 ClnCor:  largest displacement from symmetrization is 5.64D-12 for atom     8.
 Variable       Old X    -DE/DX   Delta X   Delta X   Delta X     New X
                                 (Linear)    (Quad)   (Total)
    R1        2.68485  -0.01209   0.00000  -0.02803  -0.02803   2.65682
    R2        2.59464  -0.00882   0.00000  -0.01734  -0.01730   2.57734
    R3        3.16929   0.02377   0.00000   0.06006   0.06006   3.22935
    R4        2.67639  -0.00965   0.00000  -0.02192  -0.02196   2.65444
    R5        3.18233   0.01958   0.00000   0.05064   0.05064   3.23297
    R6        2.67639  -0.00965   0.00000  -0.02192  -0.02196   2.65444
    R7        3.19402   0.01799   0.00000   0.04750   0.04750   3.24152
    R8        2.68485  -0.01209   0.00000  -0.02803  -0.02803   2.65682
    R9        3.18233   0.01958   0.00000   0.05064   0.05064   3.23297
   R10        2.59464  -0.00882   0.00000  -0.01734  -0.01730   2.57734
   R11        3.16930   0.02377   0.00000   0.06006   0.06006   3.22935
    A1        2.00734   0.00560   0.00000   0.02154   0.02157   2.02890
    A2        2.14892  -0.00228   0.00000  -0.00874  -0.00876   2.14016
    A3        2.12693  -0.00332   0.00000  -0.01280  -0.01281   2.11412
    A4        2.08359  -0.00002   0.00000   0.00013   0.00009   2.08369
    A5        2.09126  -0.00034   0.00000  -0.00143  -0.00141   2.08985
    A6        2.10833   0.00036   0.00000   0.00130   0.00132   2.10965
    A7        2.12353  -0.00220   0.00000  -0.00815  -0.00822   2.11531
    A8        2.07983   0.00110   0.00000   0.00407   0.00411   2.08394
    A9        2.07983   0.00110   0.00000   0.00407   0.00411   2.08394
   A10        2.08359  -0.00002   0.00000   0.00013   0.00009   2.08369
   A11        2.10833   0.00036   0.00000   0.00130   0.00132   2.10965
   A12        2.09126  -0.00034   0.00000  -0.00143  -0.00141   2.08985
   A13        2.00734   0.00560   0.00000   0.02154   0.02157   2.02890
   A14        2.14892  -0.00228   0.00000  -0.00874  -0.00876   2.14016
   A15        2.12693  -0.00332   0.00000  -0.01280  -0.01281   2.11412
   A16        2.26099  -0.00895   0.00000  -0.03519  -0.03510   2.22589
    D1        0.00000  -0.00000   0.00000  -0.00000   0.00000   0.00000
    D2        3.14159   0.00000   0.00000   0.00000   0.00000   3.14159
    D3        3.14159   0.00000   0.00000  -0.00000   0.00000   3.14159
    D4        0.00000   0.00000   0.00000   0.00000  -0.00000   0.00000
    D5       -0.00000  -0.00000   0.00000   0.00000   0.00000   0.00000
    D6        3.14159  -0.00000   0.00000   0.00000   0.00000   3.14159
    D7        0.00000   0.00000   0.00000   0.00000  -0.00000   0.00000
    D8        3.14159  -0.00000   0.00000   0.00000   0.00000   3.14159
    D9        3.14159  -0.00000   0.00000  -0.00000   0.00000   3.14159
   D10       -0.00000  -0.00000   0.00000  -0.00000   0.00000   0.00000
   D11       -0.00000   0.00000   0.00000  -0.00000   0.00000   0.00000
   D12        3.14159   0.00000   0.00000  -0.00000   0.00000   3.14159
   D13        3.14159   0.00000   0.00000   0.00000   0.00000   3.14159
   D14        0.00000  -0.00000   0.00000   0.00000   0.00000   0.00000
   D15        0.00000   0.00000   0.00000   0.00000  -0.00000   0.00000
   D16        3.14159  -0.00000   0.00000   0.00000   0.00000   3.14159
   D17        3.14159   0.00000   0.00000  -0.00000   0.00000   3.14159
   D18       -0.00000  -0.00000   0.00000   0.00000   0.00000   0.00000
   D19       -0.00000  -0.00000   0.00000  -0.00000   0.00000   0.00000
   D20        3.14159  -0.00000   0.00000  -0.00000   0.00000   3.14159
         Item               Value     Threshold  Converged?
 Maximum Force            0.023766     0.000450     NO 
 RMS     Force            0.008039     0.000300     NO 
 Maximum Displacement     0.038420     0.001800     NO 
 RMS     Displacement     0.013725     0.001200     NO 
 Predicted change in Energy=-3.984389D-03
 GradGradGradGradGradGradGradGradGradGradGradGradGradGradGradGradGradGrad

                          Input orientation:                          
 ---------------------------------------------------------------------
 Center     Atomic      Atomic             Coordinates (Angstroms)
 Number     Number       Type             X           Y           Z
 ---------------------------------------------------------------------
      1          6           0       -3.202790    0.210289    0.000000
      2          6           0       -2.005172    0.946728    0.000000
      3          6           0       -0.776925    0.265185    0.000000
      4          6           0       -0.723673   -1.138474   -0.000000
      5          6           0       -1.921666   -1.874302   -0.000000
      6          6           0       -3.075847   -1.147660   -0.000000
      7         17           0       -4.741481    0.953773    0.000000
      8         17           0       -2.060365    2.656651    0.000000
      9         17           0        0.684492    1.163325    0.000000
     10         17           0        0.776938   -1.960088   -0.000000
     11         17           0       -1.953380   -3.582907   -0.000000
 ---------------------------------------------------------------------
                    Distance matrix (angstroms):
                    1          2          3          4          5
     1  C    0.000000
     2  C    1.405927   0.000000
     3  C    2.426486   1.404668   0.000000
     4  C    2.822265   2.447510   1.404668   0.000000
     5  C    2.446794   2.822265   2.426486   1.405927   0.000000
     6  C    1.363870   2.352192   2.698365   2.352192   1.363870
     7  Cl   1.708900   2.736318   4.023911   4.529931   3.993666
     8  Cl   2.699967   1.710814   2.714098   4.023645   4.533075
     9  Cl   4.002404   2.698371   1.715340   2.698371   4.002404
    10  Cl   4.533075   4.023645   2.714098   1.710814   2.699967
    11  Cl   3.993666   4.529931   4.023911   2.736318   1.708900
                    6          7          8          9         10
     6  C    0.000000
     7  Cl   2.681484   0.000000
     8  Cl   3.937511   3.176190   0.000000
     9  Cl   4.413706   5.430018   3.124781   0.000000
    10  Cl   3.937510   6.240475   5.418908   3.124781   0.000000
    11  Cl   2.681484   5.324939   6.240476   5.430018   3.176189
                   11
    11  Cl   0.000000
 Stoichiometry    C6Cl5(2)
 Framework group  CS[SG(C6Cl5)]
 Deg. of freedom    19
 Full point group                 CS      NOp   2
 Largest Abelian subgroup         CS      NOp   2
 Largest concise Abelian subgroup C1      NOp   1
                         Standard orientation:                         
 ---------------------------------------------------------------------
 Center     Atomic      Atomic             Coordinates (Angstroms)
 Number     Number       Type             X           Y           Z
 ---------------------------------------------------------------------
      1          6           0       -1.123296    1.223397    0.000000
      2          6           0        0.282630    1.223755    0.000000
      3          6           0        0.972208    0.000000    0.000000
      4          6           0        0.282630   -1.223755    0.000000
      5          6           0       -1.123296   -1.223397    0.000000
      6          6           0       -1.726158    0.000000    0.000000
      7         17           0       -2.044930    2.662469    0.000000
      8         17           0        1.130912    2.709454    0.000000
      9         17           0        2.687548   -0.000000    0.000000
     10         17           0        1.130912   -2.709454    0.000000
     11         17           0       -2.044930   -2.662469    0.000000
 ---------------------------------------------------------------------
 Rotational constants (GHZ):           0.7080309           0.4674866           0.2815738
 Standard basis: 6-311++G(d,p) (5D, 7F)
 There are   217 symmetry adapted cartesian basis functions of A'  symmetry.
 There are    76 symmetry adapted cartesian basis functions of A"  symmetry.
 There are   206 symmetry adapted basis functions of A'  symmetry.
 There are    76 symmetry adapted basis functions of A"  symmetry.
   282 basis functions,   481 primitive gaussians,   293 cartesian basis functions
    61 alpha electrons       60 beta electrons
       nuclear repulsion energy      1058.8171519759 Hartrees.
 NAtoms=   11 NActive=   11 NUniq=   11 SFac= 1.00D+00 NAtFMM=   60 NAOKFM=F Big=F
 Integral buffers will be    131072 words long.
 Raffenetti 2 integral format.
 Two-electron integral symmetry is turned on.
 One-electron integrals computed using PRISM.
 NBasis=   282 RedAO= T EigKep=  2.26D-06  NBF=   206    76
 NBsUse=   280 1.00D-06 EigRej=  4.33D-07 NBFU=   204    76
 Initial guess from the checkpoint file:  "frequency_chks/123456-_23456-ClBzNeutralRadical_Freq.chk"
 B after Tr=    -0.000000   -0.000000    0.000000
         Rot=    1.000000   -0.000000   -0.000000   -0.000000 Ang=  -0.00 deg.
 Initial guess orbital symmetries:
 Alpha Orbitals:
       Occupied  (A') (A') (A') (A') (A') (A') (A') (A') (A') (A')
                 (A') (A') (A') (A') (A') (A') (A') (A') (A') (A')
                 (A') (A") (A") (A') (A') (A") (A") (A') (A') (A")
                 (A') (A') (A') (A') (A') (A') (A') (A') (A') (A')
                 (A') (A') (A') (A') (A") (A') (A') (A') (A") (A")
                 (A") (A') (A") (A') (A') (A') (A") (A') (A') (A")
                 (A")
       Virtual   (A") (A") (A') (A') (A') (A') (A') (A') (A") (A')
                 (A') (A') (A") (A") (A') (A') (A") (A') (A") (A')
                 (A') (A") (A') (A') (A') (A") (A") (A") (A') (A')
                 (A') (A') (A") (A') (A') (A') (A") (A') (A') (A')
                 (A') (A") (A') (A') (A') (A') (A') (A') (A') (A')
                 (A') (A') (A') (A') (A') (A') (A") (A') (A") (A')
                 (A") (A') (A') (A') (A') (A") (A') (A") (A') (A')
                 (A") (A') (A") (A") (A') (A") (A") (A') (A') (A')
                 (A') (A") (A') (A') (A") (A') (A") (A') (A") (A')
                 (A') (A') (A") (A') (A") (A') (A") (A") (A') (A")
                 (A') (A") (A') (A') (A') (A') (A') (A') (A') (A")
                 (A') (A') (A') (A") (A') (A') (A') (A') (A') (A")
                 (A') (A') (A') (A") (A") (A') (A') (A') (A") (A")
                 (A') (A') (A') (A') (A') (A') (A") (A") (A') (A')
                 (A') (A") (A') (A") (A") (A') (A') (A') (A') (A")
                 (A") (A') (A") (A") (A") (A') (A") (A') (A') (A')
                 (A') (A') (A') (A') (A') (A') (A') (A") (A') (A')
                 (A") (A") (A") (A") (A') (A') (A") (A') (A') (A')
                 (A') (A') (A') (A') (A') (A') (A') (A') (A') (A')
                 (A') (A') (A') (A') (A') (A') (A') (A') (A') (A")
                 (A") (A") (A") (A") (A') (A') (A') (A') (A') (A')
                 (A') (A') (A') (A') (A') (A') (A') (A') (A')
 Beta  Orbitals:
       Occupied  (A') (A') (A') (A') (A') (A') (A') (A') (A') (A')
                 (A') (A') (A') (A') (A') (A') (A') (A') (A') (A')
                 (A') (A") (A") (A') (A') (A") (A") (A') (A') (A")
                 (A') (A') (A') (A') (A') (A') (A') (A') (A') (A')
                 (A') (A') (A') (A') (A") (A') (A') (A') (A") (A")
                 (A") (A") (A') (A') (A') (A') (A") (A') (A") (A")
       Virtual   (A') (A") (A") (A') (A') (A') (A') (A') (A') (A")
                 (A') (A') (A') (A") (A") (A') (A') (A") (A') (A")
                 (A') (A') (A") (A') (A') (A') (A") (A') (A") (A')
                 (A") (A') (A') (A") (A') (A') (A') (A") (A') (A')
                 (A') (A') (A") (A') (A') (A') (A') (A') (A') (A')
                 (A') (A') (A') (A') (A') (A') (A') (A') (A") (A")
                 (A') (A") (A') (A') (A') (A') (A") (A') (A") (A')
                 (A') (A") (A') (A') (A") (A") (A") (A") (A') (A')
                 (A') (A') (A") (A') (A') (A") (A') (A") (A') (A")
                 (A') (A') (A') (A") (A') (A") (A') (A') (A") (A")
                 (A") (A') (A") (A') (A') (A') (A') (A') (A') (A')
                 (A") (A') (A') (A') (A") (A') (A') (A') (A') (A')
                 (A') (A") (A') (A') (A") (A") (A') (A') (A') (A")
                 (A") (A') (A') (A') (A') (A') (A') (A") (A") (A')
                 (A') (A') (A") (A') (A") (A") (A') (A') (A') (A')
                 (A") (A") (A') (A") (A") (A") (A') (A") (A') (A')
                 (A') (A') (A') (A') (A') (A') (A') (A') (A") (A')
                 (A') (A") (A") (A") (A") (A') (A') (A") (A') (A')
                 (A') (A') (A') (A') (A') (A') (A') (A') (A') (A')
                 (A') (A') (A') (A') (A') (A') (A') (A') (A') (A')
                 (A") (A") (A") (A") (A") (A') (A') (A') (A') (A')
                 (A') (A') (A') (A') (A') (A') (A') (A') (A') (A')
 Initial guess <Sx>= 0.0000 <Sy>= 0.0000 <Sz>= 0.5000 <S**2>= 0.7639 S= 0.5069
 ExpMin= 4.38D-02 ExpMax= 1.06D+05 ExpMxC= 3.62D+03 IAcc=3 IRadAn=         5 AccDes= 0.00D+00
 Harris functional with IExCor= 1009 and IRadAn=       5 diagonalized for initial guess.
 HarFok:  IExCor= 1009 AccDes= 0.00D+00 IRadAn=         5 IDoV= 1 UseB2=F ITyADJ=14
 ICtDFT=  3500011 ScaDFX=  1.000000  1.000000  1.000000  1.000000
 FoFCou: FMM=F IPFlag=           0 FMFlag=      100000 FMFlg1=           0
         NFxFlg=           0 DoJE=T BraDBF=F KetDBF=T FulRan=T
         wScrn=  0.000000 ICntrl=       500 IOpCl=  0 I1Cent=   200000004 NGrid=           0
         NMat0=    1 NMatS0=      1 NMatT0=    0 NMatD0=    1 NMtDS0=    0 NMtDT0=    0
 Petite list used in FoFCou.
 Requested convergence on RMS density matrix=1.00D-08 within 128 cycles.
 Requested convergence on MAX density matrix=1.00D-06.
 Requested convergence on             energy=1.00D-06.
 No special actions if energy rises.
 SCF Done:  E(UM062X) =  -2529.48941438     A.U. after   16 cycles
            NFock= 16  Conv=0.29D-08     -V/T= 2.0022
 <Sx>= 0.0000 <Sy>= 0.0000 <Sz>= 0.5000 <S**2>= 0.7635 S= 0.5067
 <L.S>=  0.00000000000    
 Annihilation of the first spin contaminant:
 S**2 before annihilation     0.7635,   after     0.7501
 Calling FoFJK, ICntrl=      2127 FMM=F ISym2X=1 I1Cent= 0 IOpClX= 1 NMat=1 NMatS=1 NMatT=0.
 ***** Axes restored to original set *****
 -------------------------------------------------------------------
 Center     Atomic                   Forces (Hartrees/Bohr)
 Number     Number              X              Y              Z
 -------------------------------------------------------------------
      1        6           0.012979310   -0.001738622   -0.000000000
      2        6          -0.001687526   -0.006253930   -0.000000000
      3        6          -0.004175485   -0.002566083   -0.000000000
      4        6          -0.006341827    0.001319299   -0.000000000
      5        6           0.004311654    0.012365084   -0.000000000
      6        6          -0.005200230   -0.003195881   -0.000000000
      7       17          -0.006818651    0.002489729   -0.000000000
      8       17           0.000136111    0.004811981   -0.000000000
      9       17           0.003300797    0.002028576   -0.000000000
     10       17           0.004354589   -0.002052143   -0.000000000
     11       17          -0.000858742   -0.007208009   -0.000000000
 -------------------------------------------------------------------
 Cartesian Forces:  Max     0.012979310 RMS     0.004454853

 GradGradGradGradGradGradGradGradGradGradGradGradGradGradGradGradGradGrad
 Berny optimization.
 Using GEDIIS/GDIIS optimizer.
 FormGI is forming the generalized inverse of G from B-inverse, IUseBI=4.
 Internal  Forces:  Max     0.007222705 RMS     0.002179984
 Search for a local minimum.
 Step number   2 out of a maximum of   57
 All quantities printed in internal units (Hartrees-Bohrs-Radians)
 Mixed Optimization -- RFO/linear search
 Update second derivatives using D2CorX and points    1    2
 DE= -4.89D-03 DEPred=-3.98D-03 R= 1.23D+00
 TightC=F SS=  1.41D+00  RLast= 1.43D-01 DXNew= 5.0454D-01 4.2939D-01
 Trust test= 1.23D+00 RLast= 1.43D-01 DXMaxT set to 4.29D-01
 ITU=  1  0
 Use linear search instead of GDIIS.
     Eigenvalues ---    0.01839   0.01843   0.01857   0.01873   0.01902
     Eigenvalues ---    0.01997   0.02049   0.02344   0.21965   0.25000
     Eigenvalues ---    0.25000   0.25000   0.25000   0.25000   0.25000
     Eigenvalues ---    0.25129   0.32025   0.37265   0.37885   0.38306
     Eigenvalues ---    0.38791   0.39780   0.41032   0.42230   0.42912
     Eigenvalues ---    0.49590   0.49967
 RFO step:  Lambda=-1.51952918D-04 EMin= 1.83894959D-02
 Quartic linear search produced a step of  0.37823.
 Iteration  1 RMS(Cart)=  0.00625055 RMS(Int)=  0.00003915
 Iteration  2 RMS(Cart)=  0.00005641 RMS(Int)=  0.00002096
 Iteration  3 RMS(Cart)=  0.00000000 RMS(Int)=  0.00002096
 ClnCor:  largest displacement from symmetrization is 6.53D-10 for atom     9.
 Variable       Old X    -DE/DX   Delta X   Delta X   Delta X     New X
                                 (Linear)    (Quad)   (Total)
    R1        2.65682  -0.00259  -0.01060   0.00146  -0.00914   2.64768
    R2        2.57734   0.00002  -0.00654   0.00635  -0.00016   2.57718
    R3        3.22935   0.00722   0.02272   0.00450   0.02722   3.25657
    R4        2.65444  -0.00158  -0.00830   0.00250  -0.00583   2.64861
    R5        3.23297   0.00481   0.01915  -0.00035   0.01881   3.25178
    R6        2.65444  -0.00158  -0.00830   0.00250  -0.00583   2.64861
    R7        3.24152   0.00387   0.01797  -0.00232   0.01565   3.25717
    R8        2.65682  -0.00259  -0.01060   0.00146  -0.00914   2.64768
    R9        3.23297   0.00481   0.01915  -0.00035   0.01881   3.25178
   R10        2.57734   0.00002  -0.00654   0.00635  -0.00016   2.57718
   R11        3.22935   0.00722   0.02272   0.00450   0.02722   3.25657
    A1        2.02890   0.00232   0.00816   0.00555   0.01373   2.04264
    A2        2.14016   0.00001  -0.00331   0.00297  -0.00036   2.13981
    A3        2.11412  -0.00233  -0.00485  -0.00852  -0.01338   2.10074
    A4        2.08369  -0.00011   0.00004  -0.00100  -0.00099   2.08269
    A5        2.08985   0.00053  -0.00053   0.00357   0.00305   2.09290
    A6        2.10965  -0.00042   0.00050  -0.00257  -0.00206   2.10760
    A7        2.11531  -0.00033  -0.00311   0.00038  -0.00279   2.11252
    A8        2.08394   0.00016   0.00155  -0.00019   0.00139   2.08533
    A9        2.08394   0.00016   0.00155  -0.00019   0.00140   2.08533
   A10        2.08369  -0.00011   0.00004  -0.00100  -0.00099   2.08269
   A11        2.10965  -0.00042   0.00050  -0.00257  -0.00206   2.10760
   A12        2.08985   0.00053  -0.00053   0.00357   0.00305   2.09290
   A13        2.02890   0.00232   0.00816   0.00555   0.01373   2.04264
   A14        2.14016   0.00001  -0.00331   0.00297  -0.00036   2.13981
   A15        2.11412  -0.00233  -0.00485  -0.00852  -0.01338   2.10074
   A16        2.22589  -0.00409  -0.01328  -0.00949  -0.02269   2.20320
    D1        0.00000  -0.00000   0.00000  -0.00000   0.00000   0.00000
    D2        3.14159  -0.00000   0.00000  -0.00000   0.00000   3.14159
    D3        3.14159  -0.00000   0.00000  -0.00000   0.00000   3.14159
    D4        0.00000   0.00000   0.00000   0.00000   0.00000   0.00000
    D5        0.00000   0.00000   0.00000   0.00000   0.00000   0.00000
    D6        3.14159  -0.00000   0.00000  -0.00000   0.00000   3.14159
    D7        0.00000   0.00000   0.00000   0.00000   0.00000   0.00000
    D8        3.14159   0.00000   0.00000   0.00000   0.00000   3.14159
    D9        3.14159  -0.00000   0.00000   0.00000   0.00000   3.14159
   D10        0.00000  -0.00000   0.00000  -0.00000   0.00000   0.00000
   D11        0.00000   0.00000   0.00000   0.00000   0.00000   0.00000
   D12        3.14159  -0.00000   0.00000  -0.00000   0.00000   3.14159
   D13        3.14159   0.00000   0.00000   0.00000   0.00000   3.14159
   D14        0.00000   0.00000   0.00000   0.00000   0.00000   0.00000
   D15        0.00000  -0.00000   0.00000  -0.00000   0.00000   0.00000
   D16        3.14159  -0.00000   0.00000  -0.00000   0.00000   3.14159
   D17        3.14159  -0.00000   0.00000  -0.00000   0.00000   3.14159
   D18        0.00000   0.00000   0.00000   0.00000   0.00000   0.00000
   D19        0.00000   0.00000   0.00000   0.00000   0.00000   0.00000
   D20        3.14159  -0.00000   0.00000  -0.00000   0.00000   3.14159
         Item               Value     Threshold  Converged?
 Maximum Force            0.007223     0.000450     NO 
 RMS     Force            0.002180     0.000300     NO 
 Maximum Displacement     0.015813     0.001800     NO 
 RMS     Displacement     0.006253     0.001200     NO 
 Predicted change in Energy=-4.382884D-04
 GradGradGradGradGradGradGradGradGradGradGradGradGradGradGradGradGradGrad

                          Input orientation:                          
 ---------------------------------------------------------------------
 Center     Atomic      Atomic             Coordinates (Angstroms)
 Number     Number       Type             X           Y           Z
 ---------------------------------------------------------------------
      1          6           0       -3.195736    0.206414    0.000000
      2          6           0       -2.003995    0.943167    0.000000
      3          6           0       -0.777499    0.264832    0.000000
      4          6           0       -0.726318   -1.135815    0.000000
      5          6           0       -1.921938   -1.866258    0.000000
      6          6           0       -3.084215   -1.152803    0.000000
      7         17           0       -4.748917    0.953011    0.000000
      8         17           0       -2.058372    2.663073    0.000000
      9         17           0        0.690971    1.167308    0.000000
     10         17           0        0.783567   -1.961211    0.000000
     11         17           0       -1.957419   -3.589197    0.000000
 ---------------------------------------------------------------------
                    Distance matrix (angstroms):
                    1          2          3          4          5
     1  C    0.000000
     2  C    1.401090   0.000000
     3  C    2.418943   1.401582   0.000000
     4  C    2.810624   2.440211   1.401582   0.000000
     5  C    2.432803   2.810624   2.418943   1.401090   0.000000
     6  C    1.363784   2.357958   2.707513   2.357958   1.363784
     7  Cl   1.723304   2.744939   4.030602   4.532604   3.992504
     8  Cl   2.707171   1.720765   2.718860   4.025658   4.531386
     9  Cl   4.003725   2.704271   1.723620   2.704271   4.003725
    10  Cl   4.531386   4.025658   2.718860   1.720765   2.707171
    11  Cl   3.992504   4.532604   4.030602   2.744939   1.723304
                    6          7          8          9         10
     6  C    0.000000
     7  Cl   2.684341   0.000000
     8  Cl   3.951362   3.188000   0.000000
     9  Cl   4.431133   5.444107   3.129889   0.000000
    10  Cl   3.951362   6.253085   5.427765   3.129889   0.000000
    11  Cl   2.684341   5.331427   6.253085   5.444107   3.188000
                   11
    11  Cl   0.000000
 Stoichiometry    C6Cl5(2)
 Framework group  CS[SG(C6Cl5)]
 Deg. of freedom    19
 Full point group                 CS      NOp   2
 Largest Abelian subgroup         CS      NOp   2
 Largest concise Abelian subgroup C1      NOp   1
                         Standard orientation:                         
 ---------------------------------------------------------------------
 Center     Atomic      Atomic             Coordinates (Angstroms)
 Number     Number       Type             X           Y           Z
 ---------------------------------------------------------------------
      1          6           0       -1.119703    1.216402   -0.000000
      2          6           0        0.281382    1.220105   -0.000000
      3          6           0        0.971147   -0.000000   -0.000000
      4          6           0        0.281382   -1.220105    0.000000
      5          6           0       -1.119703   -1.216402    0.000000
      6          6           0       -1.736367   -0.000000    0.000000
      7         17           0       -2.052051    2.665714   -0.000000
      8         17           0        1.135585    2.713882   -0.000000
      9         17           0        2.694766    0.000000   -0.000000
     10         17           0        1.135585   -2.713882    0.000000
     11         17           0       -2.052051   -2.665714    0.000000
 ---------------------------------------------------------------------
 Rotational constants (GHZ):           0.7037629           0.4665092           0.2805432
 Standard basis: 6-311++G(d,p) (5D, 7F)
 There are   217 symmetry adapted cartesian basis functions of A'  symmetry.
 There are    76 symmetry adapted cartesian basis functions of A"  symmetry.
 There are   206 symmetry adapted basis functions of A'  symmetry.
 There are    76 symmetry adapted basis functions of A"  symmetry.
   282 basis functions,   481 primitive gaussians,   293 cartesian basis functions
    61 alpha electrons       60 beta electrons
       nuclear repulsion energy      1056.5570411119 Hartrees.
 NAtoms=   11 NActive=   11 NUniq=   11 SFac= 1.00D+00 NAtFMM=   60 NAOKFM=F Big=F
 Integral buffers will be    131072 words long.
 Raffenetti 2 integral format.
 Two-electron integral symmetry is turned on.
 One-electron integrals computed using PRISM.
 NBasis=   282 RedAO= T EigKep=  2.19D-06  NBF=   206    76
 NBsUse=   280 1.00D-06 EigRej=  4.39D-07 NBFU=   204    76
 Initial guess from the checkpoint file:  "frequency_chks/123456-_23456-ClBzNeutralRadical_Freq.chk"
 B after Tr=     0.000000    0.000000   -0.000000
         Rot=    1.000000   -0.000000    0.000000    0.000000 Ang=   0.00 deg.
 Initial guess orbital symmetries:
 Alpha Orbitals:
       Occupied  (A') (A') (A') (A') (A') (A') (A') (A') (A') (A')
                 (A') (A') (A') (A') (A') (A') (A') (A') (A') (A')
                 (A') (A") (A") (A') (A') (A") (A") (A') (A') (A")
                 (A') (A') (A') (A') (A') (A') (A') (A') (A') (A')
                 (A') (A') (A') (A') (A") (A') (A') (A') (A") (A")
                 (A") (A') (A") (A') (A') (A') (A") (A') (A') (A")
                 (A")
       Virtual   (A") (A") (A') (A') (A') (A') (A') (A') (A") (A')
                 (A') (A') (A") (A") (A') (A') (A') (A") (A") (A')
                 (A') (A") (A') (A') (A') (A") (A") (A') (A") (A')
                 (A') (A') (A") (A') (A') (A') (A") (A') (A') (A')
                 (A') (A") (A') (A') (A') (A') (A') (A') (A') (A')
                 (A') (A') (A') (A') (A') (A') (A") (A') (A') (A")
                 (A") (A') (A') (A') (A') (A') (A") (A") (A') (A')
                 (A") (A') (A") (A") (A') (A") (A") (A') (A') (A')
                 (A') (A") (A') (A') (A") (A') (A") (A') (A') (A")
                 (A') (A') (A") (A') (A") (A') (A') (A") (A") (A")
                 (A') (A') (A") (A') (A') (A') (A') (A') (A') (A")
                 (A') (A') (A') (A') (A") (A') (A') (A') (A') (A")
                 (A') (A') (A') (A") (A") (A') (A') (A") (A') (A")
                 (A') (A') (A') (A') (A') (A') (A") (A") (A') (A')
                 (A') (A") (A') (A") (A") (A') (A') (A') (A') (A")
                 (A") (A') (A") (A") (A") (A') (A') (A") (A') (A')
                 (A') (A') (A') (A') (A') (A') (A') (A") (A') (A')
                 (A") (A") (A") (A") (A') (A') (A") (A') (A') (A')
                 (A') (A') (A') (A') (A') (A') (A') (A') (A') (A')
                 (A') (A') (A') (A') (A') (A') (A') (A') (A') (A")
                 (A") (A") (A") (A") (A') (A') (A') (A') (A') (A')
                 (A') (A') (A') (A') (A') (A') (A') (A') (A')
 Beta  Orbitals:
       Occupied  (A') (A') (A') (A') (A') (A') (A') (A') (A') (A')
                 (A') (A') (A') (A') (A') (A') (A') (A') (A') (A')
                 (A') (A") (A") (A') (A') (A") (A") (A') (A') (A")
                 (A') (A') (A') (A') (A') (A') (A') (A') (A') (A')
                 (A') (A') (A') (A') (A") (A') (A') (A') (A") (A")
                 (A") (A') (A") (A') (A') (A') (A") (A') (A") (A")
       Virtual   (A') (A") (A") (A') (A') (A') (A') (A') (A') (A")
                 (A') (A') (A') (A") (A") (A') (A') (A') (A") (A")
                 (A') (A') (A") (A') (A') (A') (A") (A') (A') (A")
                 (A") (A') (A') (A") (A') (A') (A') (A") (A') (A')
                 (A') (A') (A") (A') (A') (A') (A') (A') (A') (A')
                 (A') (A') (A') (A') (A') (A') (A') (A') (A") (A')
                 (A") (A") (A') (A') (A') (A') (A') (A") (A") (A')
                 (A') (A") (A') (A') (A") (A") (A") (A") (A') (A')
                 (A') (A") (A') (A') (A') (A") (A') (A") (A') (A')
                 (A") (A') (A') (A") (A') (A") (A') (A') (A") (A")
                 (A") (A') (A") (A') (A') (A') (A') (A') (A') (A')
                 (A") (A') (A') (A') (A') (A") (A') (A') (A') (A')
                 (A') (A") (A') (A') (A") (A') (A') (A") (A') (A")
                 (A") (A') (A') (A') (A') (A') (A') (A") (A") (A')
                 (A') (A') (A") (A') (A") (A") (A') (A') (A') (A')
                 (A") (A") (A') (A") (A") (A") (A') (A') (A") (A')
                 (A') (A') (A') (A') (A') (A') (A') (A') (A") (A')
                 (A') (A") (A") (A") (A") (A') (A') (A") (A') (A')
                 (A') (A') (A') (A') (A') (A') (A') (A') (A') (A')
                 (A') (A') (A') (A') (A') (A') (A') (A') (A') (A')
                 (A") (A") (A") (A") (A") (A') (A') (A') (A') (A')
                 (A') (A') (A') (A') (A') (A') (A') (A') (A') (A')
 Initial guess <Sx>= 0.0000 <Sy>= 0.0000 <Sz>= 0.5000 <S**2>= 0.7635 S= 0.5067
 Requested convergence on RMS density matrix=1.00D-08 within 128 cycles.
 Requested convergence on MAX density matrix=1.00D-06.
 Requested convergence on             energy=1.00D-06.
 No special actions if energy rises.
 SCF Done:  E(UM062X) =  -2529.48989607     A.U. after   15 cycles
            NFock= 15  Conv=0.65D-08     -V/T= 2.0022
 <Sx>= 0.0000 <Sy>= 0.0000 <Sz>= 0.5000 <S**2>= 0.7636 S= 0.5068
 <L.S>=  0.00000000000    
 Annihilation of the first spin contaminant:
 S**2 before annihilation     0.7636,   after     0.7501
 Calling FoFJK, ICntrl=      2127 FMM=F ISym2X=1 I1Cent= 0 IOpClX= 1 NMat=1 NMatS=1 NMatT=0.
 ***** Axes restored to original set *****
 -------------------------------------------------------------------
 Center     Atomic                   Forces (Hartrees/Bohr)
 Number     Number              X              Y              Z
 -------------------------------------------------------------------
      1        6           0.001553552    0.000621550   -0.000000000
      2        6          -0.000830864    0.000666761    0.000000000
      3        6           0.000854871    0.000525381    0.000000000
      4        6           0.000219567   -0.001042453   -0.000000000
      5        6           0.001256287    0.001105278    0.000000000
      6        6          -0.001290378   -0.000793008    0.000000000
      7       17          -0.000597812    0.000175454    0.000000000
      8       17          -0.000174201   -0.000387197   -0.000000000
      9       17          -0.000453391   -0.000278653   -0.000000000
     10       17          -0.000424136    0.000019489    0.000000000
     11       17          -0.000113494   -0.000612603   -0.000000000
 -------------------------------------------------------------------
 Cartesian Forces:  Max     0.001553552 RMS     0.000617679

 GradGradGradGradGradGradGradGradGradGradGradGradGradGradGradGradGradGrad
 Berny optimization.
 Using GEDIIS/GDIIS optimizer.
 FormGI is forming the generalized inverse of G from B-inverse, IUseBI=4.
 Internal  Forces:  Max     0.000682037 RMS     0.000321205
 Search for a local minimum.
 Step number   3 out of a maximum of   57
 All quantities printed in internal units (Hartrees-Bohrs-Radians)
 Mixed Optimization -- En-DIIS/RFO-DIIS
 Update second derivatives using D2CorX and points    1    2    3
 DE= -4.82D-04 DEPred=-4.38D-04 R= 1.10D+00
 TightC=F SS=  1.41D+00  RLast= 6.29D-02 DXNew= 7.2215D-01 1.8879D-01
 Trust test= 1.10D+00 RLast= 6.29D-02 DXMaxT set to 4.29D-01
 ITU=  1  1  0
 Use linear search instead of GDIIS.
     Eigenvalues ---    0.01839   0.01843   0.01857   0.01873   0.01902
     Eigenvalues ---    0.01995   0.02046   0.02339   0.19363   0.25000
     Eigenvalues ---    0.25000   0.25000   0.25000   0.25000   0.25043
     Eigenvalues ---    0.25250   0.32181   0.37287   0.37885   0.38538
     Eigenvalues ---    0.38791   0.39754   0.41352   0.42164   0.42911
     Eigenvalues ---    0.49945   0.50251
 RFO step:  Lambda=-1.32063976D-05 EMin= 1.83886022D-02
 Quartic linear search produced a step of  0.05134.
[...]
      9       17          -0.000046038   -0.000028297   -0.000000000
     10       17          -0.000088714    0.000027278   -0.000000000
     11       17           0.000020833    0.000048491   -0.000000000
 -------------------------------------------------------------------
 Cartesian Forces:  Max     0.000121165 RMS     0.000048551
 FormGI is forming the generalized inverse of G from B-inverse, IUseBI=4.

 GradGradGradGradGradGradGradGradGradGradGradGradGradGradGradGradGradGrad
 Berny optimization.
 Internal  Forces:  Max     0.000090905 RMS     0.000030262
 Search for a local minimum.
 Step number   1 out of a maximum of    2
 All quantities printed in internal units (Hartrees-Bohrs-Radians)
 Second derivative matrix not updated -- analytic derivatives used.
 ITU=  0
     Eigenvalues ---    0.01474   0.01522   0.01607   0.02441   0.02845
     Eigenvalues ---    0.02916   0.03647   0.03814   0.14881   0.15377
     Eigenvalues ---    0.16899   0.17096   0.18977   0.19852   0.23356
     Eigenvalues ---    0.26044   0.26096   0.27231   0.28046   0.30566
     Eigenvalues ---    0.30931   0.40988   0.46405   0.48193   0.49816
     Eigenvalues ---    0.51820   0.52432
 Angle between quadratic step and forces=  18.03 degrees.
 Linear search not attempted -- first point.
 Iteration  1 RMS(Cart)=  0.00012041 RMS(Int)=  0.00000001
 Iteration  2 RMS(Cart)=  0.00000001 RMS(Int)=  0.00000000
 ClnCor:  largest displacement from symmetrization is 2.28D-11 for atom     9.
 Variable       Old X    -DE/DX   Delta X   Delta X   Delta X     New X
                                 (Linear)    (Quad)   (Total)
    R1        2.64617  -0.00002   0.00000   0.00002   0.00002   2.64619
    R2        2.57867  -0.00005   0.00000  -0.00011  -0.00011   2.57856
    R3        3.25978  -0.00005   0.00000  -0.00016  -0.00016   3.25962
    R4        2.65008   0.00004   0.00000   0.00012   0.00012   2.65020
    R5        3.25044  -0.00009   0.00000  -0.00036  -0.00036   3.25008
    R6        2.65008   0.00004   0.00000   0.00012   0.00012   2.65020
    R7        3.25497  -0.00005   0.00000  -0.00021  -0.00021   3.25476
    R8        2.64617  -0.00002   0.00000   0.00002   0.00002   2.64619
    R9        3.25044  -0.00009   0.00000  -0.00036  -0.00036   3.25008
   R10        2.57867  -0.00005   0.00000  -0.00011  -0.00011   2.57856
   R11        3.25978  -0.00005   0.00000  -0.00016  -0.00016   3.25962
    A1        2.04564   0.00001   0.00000   0.00001   0.00001   2.04565
    A2        2.13991  -0.00004   0.00000  -0.00016  -0.00016   2.13975
    A3        2.09764   0.00003   0.00000   0.00014   0.00014   2.09778
    A4        2.08207  -0.00001   0.00000  -0.00007  -0.00007   2.08200
    A5        2.09256  -0.00002   0.00000  -0.00003  -0.00003   2.09253
    A6        2.10856   0.00004   0.00000   0.00010   0.00010   2.10866
    A7        2.11210  -0.00002   0.00000   0.00001   0.00001   2.11211
    A8        2.08554   0.00001   0.00000  -0.00001  -0.00001   2.08554
    A9        2.08554   0.00001   0.00000  -0.00001  -0.00001   2.08554
   A10        2.08207  -0.00001   0.00000  -0.00007  -0.00007   2.08200
   A11        2.10856   0.00004   0.00000   0.00010   0.00010   2.10866
   A12        2.09256  -0.00002   0.00000  -0.00003  -0.00003   2.09253
   A13        2.04564   0.00001   0.00000   0.00001   0.00001   2.04565
   A14        2.13991  -0.00004   0.00000  -0.00016  -0.00016   2.13975
   A15        2.09764   0.00003   0.00000   0.00014   0.00014   2.09778
   A16        2.19887   0.00002   0.00000   0.00010   0.00010   2.19897
    D1        0.00000   0.00000   0.00000   0.00000   0.00000   0.00000
    D2        3.14159  -0.00000   0.00000   0.00000   0.00000   3.14159
    D3        3.14159  -0.00000   0.00000   0.00000   0.00000   3.14159
    D4        0.00000  -0.00000   0.00000   0.00000   0.00000   0.00000
    D5        0.00000   0.00000   0.00000  -0.00000   0.00000   0.00000
    D6        3.14159   0.00000   0.00000  -0.00000   0.00000   3.14159
    D7        0.00000  -0.00000   0.00000   0.00000   0.00000   0.00000
    D8        3.14159   0.00000   0.00000  -0.00000   0.00000   3.14159
    D9        3.14159   0.00000   0.00000  -0.00000   0.00000   3.14159
   D10        0.00000   0.00000   0.00000  -0.00000   0.00000   0.00000
   D11        0.00000   0.00000   0.00000  -0.00000   0.00000   0.00000
   D12        3.14159   0.00000   0.00000  -0.00000   0.00000   3.14159
   D13        3.14159  -0.00000   0.00000   0.00000   0.00000   3.14159
   D14        0.00000   0.00000   0.00000   0.00000   0.00000   0.00000
   D15        0.00000   0.00000   0.00000  -0.00000   0.00000   0.00000
   D16        3.14159  -0.00000   0.00000   0.00000   0.00000   3.14159
   D17        3.14159  -0.00000   0.00000  -0.00000   0.00000   3.14159
   D18        0.00000  -0.00000   0.00000   0.00000   0.00000   0.00000
   D19        0.00000  -0.00000   0.00000   0.00000   0.00000   0.00000
   D20        3.14159   0.00000   0.00000   0.00000   0.00000   3.14159
         Item               Value     Threshold  Converged?
 Maximum Force            0.000091     0.000450     YES
 RMS     Force            0.000030     0.000300     YES
 Maximum Displacement     0.000380     0.001800     YES
 RMS     Displacement     0.000120     0.001200     YES
 Predicted change in Energy=-7.281736D-08
 Optimization completed.
    -- Stationary point found.
                           ----------------------------
                           !   Optimized Parameters   !
                           ! (Angstroms and Degrees)  !
 --------------------------                            --------------------------
 ! Name  Definition              Value          Derivative Info.                !
 --------------------------------------------------------------------------------
 ! R1    R(1,2)                  1.4003         -DE/DX =    0.0                 !
 ! R2    R(1,6)                  1.3646         -DE/DX =    0.0                 !
 ! R3    R(1,7)                  1.725          -DE/DX =    0.0                 !
 ! R4    R(2,3)                  1.4024         -DE/DX =    0.0                 !
 ! R5    R(2,8)                  1.7201         -DE/DX =   -0.0001              !
 ! R6    R(3,4)                  1.4024         -DE/DX =    0.0                 !
 ! R7    R(3,9)                  1.7225         -DE/DX =   -0.0001              !
 ! R8    R(4,5)                  1.4003         -DE/DX =    0.0                 !
 ! R9    R(4,10)                 1.7201         -DE/DX =   -0.0001              !
 ! R10   R(5,6)                  1.3646         -DE/DX =    0.0                 !
 ! R11   R(5,11)                 1.725          -DE/DX =    0.0                 !
 ! A1    A(2,1,6)              117.2064         -DE/DX =    0.0                 !
 ! A2    A(2,1,7)              122.6077         -DE/DX =    0.0                 !
 ! A3    A(6,1,7)              120.1858         -DE/DX =    0.0                 !
 ! A4    A(1,2,3)              119.2936         -DE/DX =    0.0                 !
 ! A5    A(1,2,8)              119.8947         -DE/DX =    0.0                 !
 ! A6    A(3,2,8)              120.8117         -DE/DX =    0.0                 !
 ! A7    A(2,3,4)              121.0142         -DE/DX =    0.0                 !
 ! A8    A(2,3,9)              119.4929         -DE/DX =    0.0                 !
 ! A9    A(4,3,9)              119.4929         -DE/DX =    0.0                 !
 ! A10   A(3,4,5)              119.2936         -DE/DX =    0.0                 !
 ! A11   A(3,4,10)             120.8117         -DE/DX =    0.0                 !
 ! A12   A(5,4,10)             119.8947         -DE/DX =    0.0                 !
 ! A13   A(4,5,6)              117.2064         -DE/DX =    0.0                 !
 ! A14   A(4,5,11)             122.6077         -DE/DX =    0.0                 !
 ! A15   A(6,5,11)             120.1858         -DE/DX =    0.0                 !
 ! A16   A(1,6,5)              125.9857         -DE/DX =    0.0                 !
 ! D1    D(6,1,2,3)              0.0            -DE/DX =    0.0                 !
 ! D2    D(6,1,2,8)            180.0            -DE/DX =    0.0                 !
 ! D3    D(7,1,2,3)            180.0            -DE/DX =    0.0                 !
 ! D4    D(7,1,2,8)              0.0            -DE/DX =    0.0                 !
 ! D5    D(2,1,6,5)              0.0            -DE/DX =    0.0                 !
 ! D6    D(7,1,6,5)            180.0            -DE/DX =    0.0                 !
 ! D7    D(1,2,3,4)              0.0            -DE/DX =    0.0                 !
 ! D8    D(1,2,3,9)            180.0            -DE/DX =    0.0                 !
 ! D9    D(8,2,3,4)            180.0            -DE/DX =    0.0                 !
 ! D10   D(8,2,3,9)              0.0            -DE/DX =    0.0                 !
 ! D11   D(2,3,4,5)              0.0            -DE/DX =    0.0                 !
 ! D12   D(2,3,4,10)           180.0            -DE/DX =    0.0                 !
 ! D13   D(9,3,4,5)            180.0            -DE/DX =    0.0                 !
 ! D14   D(9,3,4,10)             0.0            -DE/DX =    0.0                 !
 ! D15   D(3,4,5,6)              0.0            -DE/DX =    0.0                 !
 ! D16   D(3,4,5,11)           180.0            -DE/DX =    0.0                 !
 ! D17   D(10,4,5,6)           180.0            -DE/DX =    0.0                 !
 ! D18   D(10,4,5,11)            0.0            -DE/DX =    0.0                 !
 ! D19   D(4,5,6,1)              0.0            -DE/DX =    0.0                 !
 ! D20   D(11,5,6,1)           180.0            -DE/DX =    0.0                 !
 --------------------------------------------------------------------------------
 GradGradGradGradGradGradGradGradGradGradGradGradGradGradGradGradGradGrad


 ----------------------------------------------------------------------

 Electric dipole moment (input orientation):
 (Debye = 10**-18 statcoulomb cm , SI units = C m)
                  (au)            (Debye)         (10**-30 SI)
   Tot        0.451089D-01      0.114655D+00      0.382449D+00
   x         -0.384313D-01     -0.976827D-01     -0.325835D+00
   y         -0.236187D-01     -0.600327D-01     -0.200248D+00
   z          0.000000D+00      0.000000D+00      0.000000D+00

 Dipole polarizability, Alpha (input orientation).
 (esu units = cm**3 , SI units = C**2 m**2 J**-1)
 Alpha(0;0):
               (au)            (10**-24 esu)      (10**-40 SI)
   iso        0.127699D+03      0.189230D+02      0.210546D+02
   aniso      0.936563D+02      0.138784D+02      0.154418D+02
   xx         0.151896D+03      0.225087D+02      0.250443D+02
   yx        -0.119464D+02     -0.177028D+01     -0.196970D+01
   yy         0.163993D+03      0.243013D+02      0.270388D+02
   zx         0.000000D+00      0.000000D+00      0.000000D+00
   zy         0.000000D+00      0.000000D+00      0.000000D+00
   zz         0.672057D+02      0.995886D+01      0.110807D+02

 ----------------------------------------------------------------------

 Dipole orientation:
     6         -1.82898190          2.97604235          4.93803587
     6         -1.83380156          2.98388469          2.29187691
     6         -0.62604468          1.01867354          0.98720124
     6          0.58171222         -0.94653763          2.29187686
     6          0.57689258         -0.93869532          4.93803583
     6         -0.62604465          1.01867350          6.10901369
    17         -3.26354746          5.31030703          6.70422277
    17         -3.31219949          5.38947156          0.68164830
    17         -0.62604472          1.01867361         -2.26776863
    17          2.06011014         -3.35212450          0.68164824
    17          2.01145817         -3.27296005          6.70422265

 Electric dipole moment (dipole orientation):
 (Debye = 10**-18 statcoulomb cm , SI units = C m)
                  (au)            (Debye)         (10**-30 SI)
   Tot        0.451089D-01      0.114655D+00      0.382449D+00
   x          0.000000D+00      0.000000D+00      0.000000D+00
   y          0.000000D+00      0.000000D+00      0.000000D+00
   z          0.451089D-01      0.114655D+00      0.382449D+00

 Dipole polarizability, Alpha (dipole orientation).
 (esu units = cm**3 , SI units = C**2 m**2 J**-1)
 Alpha(0;0):
               (au)            (10**-24 esu)      (10**-40 SI)
   iso        0.127699D+03      0.189230D+02      0.210546D+02
   aniso      0.936563D+02      0.138784D+02      0.154418D+02
   xx         0.957528D+02      0.141891D+02      0.157875D+02
   yx        -0.464506D+02     -0.688327D+01     -0.765867D+01
   yy         0.142788D+03      0.211590D+02      0.235426D+02
   zx         0.000000D+00      0.000000D+00      0.000000D+00
   zy         0.000000D+00      0.000000D+00      0.000000D+00
   zz         0.144555D+03      0.214208D+02      0.238338D+02

 ----------------------------------------------------------------------
 1\1\GINC-SH02-01N35\Freq\UM062X\6-311++G(d,p)\C6Cl5(2)\JLAPIER\10-Dec-
 2025\0\\#N Geom=AllCheck Guess=TCheck SCRF=Check GenChk UM062X/6-311++
 G(d,p) Freq\\Neutral Radical (removed 1) _23456\\0,2\C,-3.1941311047,0
 .206654941,0.\C,-2.003681105,0.943985437,0.\C,-0.7763606766,0.26553152
 99,0.\C,-0.7254462414,-1.1359044701,0.\C,-1.9209971355,-1.8649350082,0
 .\C,-3.085490486,-1.1535869614,0.\Cl,-4.7495423074,0.952531043,0.\Cl,-
 2.0600563889,2.663118854,0.\Cl,0.6911174787,1.1673974324,0.\Cl,0.78284
 74622,-1.9627345514,0.\Cl,-1.9581294899,-3.5895382552,0.\\Version=ES64
 L-G16RevB.01\State=2-A'\HF=-2529.4899061\S2=0.763646\S2-1=0.\S2A=0.750
 085\RMSD=4.654e-09\RMSF=4.855e-05\ZeroPoint=0.0403908\Thermal=0.050677
 6\Dipole=-0.0384313,-0.0236187,0.\DipoleDeriv=0.9131079,-0.362962,0.,-
 0.4405074,0.0955229,0.,0.,0.,0.0243693,-0.2414452,-0.0543095,0.,-0.069
 5912,0.9596676,0.,0.,0.,0.0003051,0.5817852,0.5438493,0.,0.5438493,0.0
 310892,0.,0.,0.,-0.0050616,0.6646692,-0.5283521,0.,-0.5130704,0.053553
 3,0.,0.,0.,0.0003051,-0.0614554,0.0529087,0.,0.1304542,1.0700862,0.,0.
 ,0.,0.0243693,-0.2065577,0.0309323,0.,0.0309322,-0.2378795,0.,0.,0.,-0
 .0323017,-0.6357708,0.2754921,0.,0.2904748,-0.1478336,0.,0.,0.,-0.0002
 817,0.0155629,0.0192297,0.,0.0542093,-0.7288422,0.,0.,0.,-0.0049294,-0
 .4632248,-0.2943674,0.,-0.2943675,-0.1651515,0.,0.,0.,-0.0015634,-0.54
 73632,0.3392158,0.,0.3042362,-0.1659161,0.,0.,0.,-0.0049294,-0.0193081
 ,-0.021637,0.,-0.0366197,-0.7642963,0.,0.,0.,-0.0002817\Polar=151.8964
 793,-11.9464394,163.9933169,0.,0.,67.2057135\Quadrupole=0.3211357,0.35
 79394,-0.6790751,-0.0363461,0.,0.\PG=CS [SG(C6Cl5)]\NImag=0\\0.5312015
 8,-0.00029192,0.63580871,0.,0.,0.10952338,-0.24434647,-0.04751369,0.,0
 .60800168,-0.13201344,-0.15004751,0.,0.00535329,0.55103382,0.,0.,-0.05
 793003,0.,0.,0.10801761,-0.05645070,-0.04020743,0.,-0.24888086,0.12100
 932,0.,0.56597641,0.02771536,0.07297777,0.,0.04593721,-0.14672125,0.,-
 0.02843375,0.59476812,0.,0.,0.00125670,0.,0.,-0.05314692,0.,0.,0.11011
 328,-0.01667007,-0.03678393,0.,0.03626293,0.02477680,0.,-0.10028685,0.
 04577697,0.,0.56697184,-0.03586667,-0.06632104,0.,0.09160265,-0.022659
 36,0.,-0.02929514,-0.29531526,0.,0.02612647,0.59206364,0.,0.,0.0061286
 4,0.,0.,-0.00147885,0.,0.,-0.05314692,0.,0.,0.10801761,0.03529150,0.08
 405102,0.,-0.08546830,-0.00195175,0.,0.04153580,-0.08981747,0.,-0.2416
 3594,-0.04888602,0.,0.61423007,0.03499420,-0.02498047,0.,-0.00103449,0
 .00247719,0.,-0.02189469,-0.02500874,0.,-0.13338576,-0.15275803,0.,-0.
 04232881,0.55278022,0.,0.,0.00045945,0.,0.,0.00612864,0.,0.,0.00125670
 ,0.,0.,-0.05793003,0.,0.,0.10952338,-0.08363753,0.00465049,0.,0.045690
 38,-0.01650650,0.,-0.02661644,0.03668612,0.,-0.06375032,-0.03372306,0.
 ,-0.29331255,0.13874869,0.,0.44062664,0.03259134,-0.36591479,0.,-0.089
 13230,-0.03831937,0.,0.03668612,-0.06376442,0.,0.03890275,0.07112135,0
 .,0.11080784,-0.15623977,0.,-0.16803100,0.61077305,0.,0.,-0.04858001,0
 .,0.,0.00890538,0.,0.,0.00278745,0.,0.,0.00890538,0.,0.,-0.04858000,0.
 ,0.,0.06609683,-0.16469334,0.05339604,0.,-0.03670930,0.01739818,0.,0.0
 0082624,-0.00354150,0.,-0.00055269,-0.00042380,0.,0.00151805,-0.002323
 62,0.,-0.01564062,0.02300937,0.,0.22300426,0.07116584,-0.06365847,0.,-
 0.00576827,0.00282666,0.,-0.00100350,-0.00223313,0.,0.00064196,0.00130
 800,0.,-0.00203359,-0.00230332,0.,0.03192162,-0.01865700,0.,-0.0884379
 3,0.08309684,0.,0.,-0.02176150,0.,0.,0.00495244,0.,0.,0.00368180,0.,0.
 ,-0.00094118,0.,0.,0.00401303,0.,0.,0.00179778,0.,0.,0.00975741,0.0004
 9548,-0.02260551,0.,-0.03800585,0.00454876,0.,-0.00116046,0.02374520,0
 .,-0.00317476,-0.00108637,0.,0.00054172,0.00072216,0.,-0.00308175,-0.0
 0117951,0.,-0.00413343,-0.00775177,0.,0.05486704,-0.00072843,-0.039426
 83,0.,0.00562618,-0.19745476,0.,0.00334378,-0.03541236,0.,0.00118721,0
 .00307072,0.,0.00092778,0.00091444,0.,-0.00435409,-0.00012760,0.,-0.00
 058128,0.00020341,0.,-0.00701155,0.27150756,0.,0.,0.00416611,0.,0.,-0.
 02179436,0.,0.,0.00299608,0.,0.,0.00408201,0.,0.,-0.00144985,0.,0.,0.0
 0401413,0.,0.,-0.00130973,0.,0.,0.01015014,0.00058581,0.00446859,0.,-0
 .03939756,-0.02111200,0.,-0.15399548,-0.07084490,0.,-0.01578952,-0.012
 18121,0.,0.00205976,0.00134676,0.,-0.00141276,-0.00116849,0.,-0.001791
 14,-0.00030235,0.,-0.00641274,0.00088287,0.,0.21345802,0.00209302,-0.0
 0088452,0.,-0.00022859,0.00106666,0.,-0.07084490,-0.08225869,0.,-0.033
 06463,-0.02254138,0.,0.00372233,-0.00235847,0.,-0.00116849,-0.00022956
 ,0.,0.00013743,0.00039964,0.,0.00938056,-0.00002294,0.,0.09491111,0.11
 735204,0.,0.,0.00417408,0.,0.,0.00320526,0.,0.,-0.02247605,0.,0.,0.003
 20526,0.,0.,0.00417408,0.,0.,-0.00115886,0.,0.,0.00004948,0.,0.,-0.001
 06540,0.,0.,0.01090806,0.00150331,0.00044093,0.,0.00183707,-0.00135026
 ,0.,-0.01750713,0.01162001,0.,-0.16082140,0.06780704,0.,-0.04068477,0.
 02012091,0.,-0.00296035,-0.00441556,0.,-0.00173876,0.00091809,0.,-0.00
 005219,0.00072898,0.,0.00280942,-0.00378626,0.,0.22165441,0.00023531,-
 0.00004714,0.,-0.00362383,-0.00194111,0.,0.03202144,-0.01906568,0.,0.0
 6672962,-0.07463921,0.,-0.00175617,0.00175341,0.,-0.00124097,-0.000249
 00,0.,0.00094114,-0.00034868,0.,0.00123642,-0.00104727,0.,0.00471142,-
 0.00924510,0.,-0.09145512,0.10472019,0.,0.,-0.00144985,0.,0.,0.0040820
 1,0.,0.,0.00299608,0.,0.,-0.02179436,0.,0.,0.00416612,0.,0.,0.00401413
 ,0.,0.,0.00004036,0.,0.,0.00017050,0.,0.,-0.00106540,0.,0.,0.01015014,
 -0.00327956,0.00039541,0.,0.00101628,-0.00015240,0.,-0.00344052,0.0011
 5673,0.,-0.00055322,-0.02407390,0.,-0.03407534,0.00503464,0.,0.0040952
 8,0.02192945,0.,-0.00008925,0.00064990,0.,0.00011696,-0.00002145,0.,-0
 .00011382,-0.00115157,0.,-0.00403962,-0.00779927,0.,0.04036281,0.00010
 539,0.00249429,0.,-0.00121816,-0.00026096,0.,-0.00138126,0.00203363,0.
 ,-0.00090745,-0.03332942,0.,-0.01273516,-0.19427648,0.,0.01301719,-0.0
 3839289,0.,0.00042597,-0.00063396,0.,0.00000160,-0.00220440,0.,-0.0007
 1179,-0.00127769,0.,-0.00062878,0.00010959,0.,0.00403247,0.26573829,0.
 ,0.,0.00401303,0.,0.,-0.00094118,0.,0.,0.00368180,0.,0.,0.00495244,0.,
 0.,-0.02176150,0.,0.,0.00179778,0.,0.,-0.00027988,0.,0.,0.00004036,0.,
 0.,0.00004948,0.,0.,-0.00130973,0.,0.,0.00975741\\0.00003957,0.0000451
 3,0.,0.00004362,-0.00012116,0.,-0.00007000,-0.00004302,0.,-0.00008839,
 0.00009365,0.,0.00005813,0.00001492,0.,-0.00005992,-0.00003683,0.,-0.0
 0005267,0.00000332,0.,0.00001574,0.00009147,0.,0.00004604,0.00002830,0
 .,0.00008871,-0.00002728,0.,-0.00002083,-0.00004849,0.\\\@


 WE ARE REACHING THE STAGE WHERE THE PROBLEMS WE MUST SOLVE ARE 
 GOING TO BECOME INSOLUBLE WITHOUT COMPUTERS.
 I DO NOT FEAR COMPUTERS.  I FEAR THE LACK OF THEM.

                                   -- ISSAC ASIMOV
 Job cpu time:       0 days  1 hours  4 minutes  9.8 seconds.
 Elapsed time:       0 days  0 hours 16 minutes  4.3 seconds.
 File lengths (MBytes):  RWF=    261 Int=      0 D2E=      0 Chk=     34 Scr=      1
 Normal termination of Gaussian 16 at Wed Dec 10 11:48:00 2025.
