 Entering Gaussian System, Link 0=g16
 Initial command:
 /share/software/user/restricted/gaussian/g16.B01/l1.exe "/home/users/jlapier/Chloroaromatics/Gau-7671.inp" -scrdir="/home/users/jlapier/Chloroaromatics/"
 Entering Link 1 = /share/software/user/restricted/gaussian/g16.B01/l1.exe PID=      7672.
  
 Copyright (c) 1988-2017, Gaussian, Inc.  All Rights Reserved.
  
 This is part of the Gaussian(R) 16 program.  It is based on
 the Gaussian(R) 09 system (copyright 2009, Gaussian, Inc.),
 the Gaussian(R) 03 system (copyright 2003, Gaussian, Inc.),
 the Gaussian(R) 98 system (copyright 1998, Gaussian, Inc.),
 the Gaussian(R) 94 system (copyright 1995, Gaussian, Inc.),
 the Gaussian 92(TM) system (copyright 1992, Gaussian, Inc.),
 the Gaussian 90(TM) system (copyright 1990, Gaussian, Inc.),
 the Gaussian 88(TM) system (copyright 1988, Gaussian, Inc.),
 the Gaussian 86(TM) system (copyright 1986, Carnegie Mellon
 University), and the Gaussian 82(TM) system (copyright 1983,
 Carnegie Mellon University). Gaussian is a federally registered
 trademark of Gaussian, Inc.
  
 This software contains proprietary and confidential information,
 including trade secrets, belonging to Gaussian, Inc.
  
 This software is provided under written license and may be
 used, copied, transmitted, or stored only in accord with that
 written license.
  
 The following legend is applicable only to US Government
 contracts under FAR:
  
                    RESTRICTED RIGHTS LEGEND
  
 Use, reproduction and disclosure by the US Government is
 subject to restrictions as set forth in subparagraphs (a)
 and (c) of the Commercial Computer Software - Restricted
 Rights clause in FAR 52.227-19.
  
 Gaussian, Inc.
 340 Quinnipiac St., Bldg. 40, Wallingford CT 06492
  
  
 ---------------------------------------------------------------
 Warning -- This program may not be used in any manner that
 competes with the business of Gaussian, Inc. or will provide
 assistance to any competitor of Gaussian, Inc.  The licensee
 of this program is prohibited from giving any competitor of
 Gaussian, Inc. access to this program.  By using this program,
 the user acknowledges that Gaussian, Inc. is engaged in the
 business of creating and licensing software in the field of
 computational chemistry and represents and warrants to the
 licensee that it is not a competitor of Gaussian, Inc. and that
 it will not use this program in any manner prohibited above.
 ---------------------------------------------------------------
  

 Cite this work as:
 Gaussian 16, Revision B.01,
 M. J. Frisch, G. W. Trucks, H. B. Schlegel, G. E. Scuseria, 
 M. A. Robb, J. R. Cheeseman, G. Scalmani, V. Barone, 
 G. A. Petersson, H. Nakatsuji, X. Li, M. Caricato, A. V. Marenich, 
 J. Bloino, B. G. Janesko, R. Gomperts, B. Mennucci, H. P. Hratchian, 
 J. V. Ortiz, A. F. Izmaylov, J. L. Sonnenberg, D. Williams-Young, 
 F. Ding, F. Lipparini, F. Egidi, J. Goings, B. Peng, A. Petrone, 
 T. Henderson, D. Ranasinghe, V. G. Zakrzewski, J. Gao, N. Rega, 
 G. Zheng, W. Liang, M. Hada, M. Ehara, K. Toyota, R. Fukuda, 
 J. Hasegawa, M. Ishida, T. Nakajima, Y. Honda, O. Kitao, H. Nakai, 
 T. Vreven, K. Throssell, J. A. Montgomery, Jr., J. E. Peralta, 
 F. Ogliaro, M. J. Bearpark, J. J. Heyd, E. N. Brothers, K. N. Kudin, 
 V. N. Staroverov, T. A. Keith, R. Kobayashi, J. Normand, 
 K. Raghavachari, A. P. Rendell, J. C. Burant, S. S. Iyengar, 
 J. Tomasi, M. Cossi, J. M. Millam, M. Klene, C. Adamo, R. Cammi, 
 J. W. Ochterski, R. L. Martin, K. Morokuma, O. Farkas, 
 J. B. Foresman, and D. J. Fox, Gaussian, Inc., Wallingford CT, 2016.
 
 ******************************************
 Gaussian 16:  ES64L-G16RevB.01 20-Dec-2017
                 9-Dec-2025 
 ******************************************
 %mem=8GB
 %nprocshare=4
 Will use up to    4 processors via shared memory.
 %oldchk=geometry_chks/12345ClBzAnionRadical.chk
 %chk=frequency_chks/12345ClBzAnionRadical_Freq.chk
 Copying data from "geometry_chks/12345ClBzAnionRadical.chk" to current chk file "frequency_chks/12345ClBzAnionRadical_Freq.chk"
 IOpt=  2 FromEx=T IUOpen= 4 IOptOp= 5 NList=   0 IFRang= 0 IUIn= 4 IUOut= 2.
 -------------------------------------------------------
 # opt freq 6-311++g(d,p) guess=read geom=allcheck m062x
 -------------------------------------------------------
 1/18=20,19=15,26=3,29=7,38=1/1,3;
 2/9=110,12=2,40=1/2;
 3/5=4,6=6,7=1111,11=2,14=-4,25=1,30=1,71=1,74=-55,116=-2/1,2,3;
 4/5=1/1;
 5/5=2,38=6/2;
 6/7=2,8=2,9=2,10=2,28=1/1;
 7//1,2,3,16;
 1/18=20,19=15,26=3/3(2);
 2/9=110/2;
 99//99;
 2/9=110/2;
 3/5=4,6=6,7=1111,11=2,14=-2,25=1,30=1,71=1,74=-55/1,2,3;
 4/5=5,16=3,69=1/1;
 5/5=2,38=5/2;
 7//1,2,3,16;
 1/18=20,19=15,26=3/3(-5);
 2/9=110/2;
 6/7=2,8=2,9=2,10=2,19=2,28=1/1;
 99/9=1/99;
 Structure from the checkpoint file:  "frequency_chks/12345ClBzAnionRadical_Freq.chk"
 --------------------------------------
 5-Chloro-Benzene Anion Radical (12345)
 --------------------------------------
 Charge = -1 Multiplicity = 2
 Redundant internal coordinates found in file.  (old form).
 C,0,-3.1972511103,0.1421191662,0.
 C,0,-2.0102721368,0.8909046992,0.
 C,0,-0.7839745837,0.2084142781,0.
 C,0,-0.7450394058,-1.1953266089,0.
 C,0,-1.9325720431,-1.9375336696,0.
 C,0,-3.1590613271,-1.2616422823,0.
 Cl,0,-4.586712939,-2.2047534086,0.
 Cl,0,-4.7012185015,0.9371214806,0.
 Cl,0,-2.0625123543,2.7925551755,0.
 Cl,0,0.6740784847,1.0847862325,0.
 Cl,0,0.7322364236,-2.058636368,0.
 H,0,-1.902400495,-3.0358386944,0.
 Recover connectivity data from disk.

 GradGradGradGradGradGradGradGradGradGradGradGradGradGradGradGradGradGrad
 Berny optimization.
 Initialization pass.
                           ----------------------------
                           !    Initial Parameters    !
                           ! (Angstroms and Degrees)  !
 --------------------------                            --------------------------
 ! Name  Definition              Value          Derivative Info.                !
 --------------------------------------------------------------------------------
 ! R1    R(1,2)                  1.4034         estimate D2E/DX2                !
 ! R2    R(1,6)                  1.4043         estimate D2E/DX2                !
 ! R3    R(1,8)                  1.7012         estimate D2E/DX2                !
 ! R4    R(2,3)                  1.4034         estimate D2E/DX2                !
 ! R5    R(2,9)                  1.9024         estimate D2E/DX2                !
 ! R6    R(3,4)                  1.4043         estimate D2E/DX2                !
 ! R7    R(3,10)                 1.7012         estimate D2E/DX2                !
 ! R8    R(4,5)                  1.4004         estimate D2E/DX2                !
 ! R9    R(4,11)                 1.711          estimate D2E/DX2                !
 ! R10   R(5,6)                  1.4004         estimate D2E/DX2                !
 ! R11   R(5,12)                 1.0987         estimate D2E/DX2                !
 ! R12   R(6,7)                  1.711          estimate D2E/DX2                !
 ! A1    A(2,1,6)              120.6867         estimate D2E/DX2                !
 ! A2    A(2,1,8)              119.8938         estimate D2E/DX2                !
 ! A3    A(6,1,8)              119.4194         estimate D2E/DX2                !
 ! A4    A(1,2,3)              118.657          estimate D2E/DX2                !
 ! A5    A(1,2,9)              120.6715         estimate D2E/DX2                !
 ! A6    A(3,2,9)              120.6715         estimate D2E/DX2                !
 ! A7    A(2,3,4)              120.6867         estimate D2E/DX2                !
 ! A8    A(2,3,10)             119.8938         estimate D2E/DX2                !
 ! A9    A(4,3,10)             119.4194         estimate D2E/DX2                !
 ! A10   A(3,4,5)              120.4166         estimate D2E/DX2                !
 ! A11   A(3,4,11)             121.8905         estimate D2E/DX2                !
 ! A12   A(5,4,11)             117.6929         estimate D2E/DX2                !
 ! A13   A(4,5,6)              119.1364         estimate D2E/DX2                !
 ! A14   A(4,5,12)             120.4318         estimate D2E/DX2                !
 ! A15   A(6,5,12)             120.4318         estimate D2E/DX2                !
 ! A16   A(1,6,5)              120.4166         estimate D2E/DX2                !
 ! A17   A(1,6,7)              121.8905         estimate D2E/DX2                !
 ! A18   A(5,6,7)              117.6929         estimate D2E/DX2                !
 ! D1    D(6,1,2,3)              0.0            estimate D2E/DX2                !
 ! D2    D(6,1,2,9)            180.0            estimate D2E/DX2                !
 ! D3    D(8,1,2,3)            180.0            estimate D2E/DX2                !
 ! D4    D(8,1,2,9)              0.0            estimate D2E/DX2                !
 ! D5    D(2,1,6,5)              0.0            estimate D2E/DX2                !
 ! D6    D(2,1,6,7)            180.0            estimate D2E/DX2                !
 ! D7    D(8,1,6,5)            180.0            estimate D2E/DX2                !
 ! D8    D(8,1,6,7)              0.0            estimate D2E/DX2                !
 ! D9    D(1,2,3,4)              0.0            estimate D2E/DX2                !
 ! D10   D(1,2,3,10)           180.0            estimate D2E/DX2                !
 ! D11   D(9,2,3,4)            180.0            estimate D2E/DX2                !
 ! D12   D(9,2,3,10)             0.0            estimate D2E/DX2                !
 ! D13   D(2,3,4,5)              0.0            estimate D2E/DX2                !
 ! D14   D(2,3,4,11)           180.0            estimate D2E/DX2                !
 ! D15   D(10,3,4,5)           180.0            estimate D2E/DX2                !
 ! D16   D(10,3,4,11)            0.0            estimate D2E/DX2                !
 ! D17   D(3,4,5,6)              0.0            estimate D2E/DX2                !
 ! D18   D(3,4,5,12)           180.0            estimate D2E/DX2                !
 ! D19   D(11,4,5,6)           180.0            estimate D2E/DX2                !
 ! D20   D(11,4,5,12)            0.0            estimate D2E/DX2                !
 ! D21   D(4,5,6,1)              0.0            estimate D2E/DX2                !
 ! D22   D(4,5,6,7)            180.0            estimate D2E/DX2                !
 ! D23   D(12,5,6,1)           180.0            estimate D2E/DX2                !
 ! D24   D(12,5,6,7)             0.0            estimate D2E/DX2                !
 --------------------------------------------------------------------------------
 Trust Radius=3.00D-01 FncErr=1.00D-07 GrdErr=1.00D-06 EigMax=2.50D+02 EigMin=1.00D-04
 Number of steps in this run=     64 maximum allowed number of steps=    100.
 GradGradGradGradGradGradGradGradGradGradGradGradGradGradGradGradGradGrad

                          Input orientation:                          
 ---------------------------------------------------------------------
 Center     Atomic      Atomic             Coordinates (Angstroms)
 Number     Number       Type             X           Y           Z
 ---------------------------------------------------------------------
      1          6           0       -3.197251    0.142119    0.000000
      2          6           0       -2.010272    0.890905    0.000000
      3          6           0       -0.783975    0.208414    0.000000
      4          6           0       -0.745039   -1.195327    0.000000
      5          6           0       -1.932572   -1.937534    0.000000
      6          6           0       -3.159061   -1.261642    0.000000
      7         17           0       -4.586713   -2.204753    0.000000
      8         17           0       -4.701219    0.937121    0.000000
      9         17           0       -2.062512    2.792555    0.000000
     10         17           0        0.674078    1.084786    0.000000
     11         17           0        0.732236   -2.058636    0.000000
     12          1           0       -1.902400   -3.035839    0.000000
 ---------------------------------------------------------------------
                    Distance matrix (angstroms):
                    1          2          3          4          5
     1  C    0.000000
     2  C    1.403424   0.000000
     3  C    2.414187   1.403424   0.000000
     4  C    2.793225   2.439913   1.404281   0.000000
     5  C    2.434003   2.829505   2.434003   1.400395   0.000000
     6  C    1.404281   2.439913   2.793225   2.414933   1.400395
     7  Cl   2.727346   4.027548   4.503798   3.972077   2.667559
     8  Cl   1.701160   2.691343   3.984447   4.494295   3.991121
     9  Cl   2.883131   1.902368   2.883131   4.199873   4.731873
    10  Cl   3.984447   2.691343   1.701160   2.685668   3.991121
    11  Cl   4.503798   4.027548   2.727346   1.711037   2.667559
    12  H    3.431626   3.928225   3.431626   2.174159   1.098719
                    6          7          8          9         10
     6  C    0.000000
     7  Cl   1.711037   0.000000
     8  Cl   2.685668   3.143961   0.000000
     9  Cl   4.199873   5.598632   3.225741   0.000000
    10  Cl   4.494295   6.204595   5.377325   3.225741   0.000000
    11  Cl   3.972077   5.320956   6.204595   5.598632   3.143961
    12  H    2.174159   2.810024   4.859814   5.830593   4.859814
                   11         12
    11  Cl   0.000000
    12  H    2.810024   0.000000
 Stoichiometry    C6HCl5(1-,2)
 Framework group  CS[SG(C6HCl5)]
 Deg. of freedom    21
 Full point group                 CS      NOp   2
 Largest Abelian subgroup         CS      NOp   2
 Largest concise Abelian subgroup C1      NOp   1
                         Standard orientation:                         
 ---------------------------------------------------------------------
 Center     Atomic      Atomic             Coordinates (Angstroms)
 Number     Number       Type             X           Y           Z
 ---------------------------------------------------------------------
      1          6           0       -1.207093   -0.278536    0.000000
      2          6           0        0.000000   -0.994444    0.000000
      3          6           0        1.207093   -0.278536    0.000000
      4          6           0        1.207466    1.125745    0.000000
      5          6           0        0.000000    1.835062    0.000000
      6          6           0       -1.207466    1.125745    0.000000
      7         17           0       -2.660478    2.029296    0.000000
      8         17           0       -2.688662   -1.114538    0.000000
      9         17           0        0.000000   -2.896811    0.000000
     10         17           0        2.688662   -1.114538    0.000000
     11         17           0        2.660478    2.029296    0.000000
     12          1           0       -0.000000    2.933781    0.000000
 ---------------------------------------------------------------------
 Rotational constants (GHZ):           0.6636714           0.4720683           0.2758539
 Standard basis: 6-311++G(d,p) (5D, 7F)
 There are   223 symmetry adapted cartesian basis functions of A'  symmetry.
 There are    77 symmetry adapted cartesian basis functions of A"  symmetry.
 There are   212 symmetry adapted basis functions of A'  symmetry.
 There are    77 symmetry adapted basis functions of A"  symmetry.
   289 basis functions,   490 primitive gaussians,   300 cartesian basis functions
    62 alpha electrons       61 beta electrons
       nuclear repulsion energy      1068.1869447317 Hartrees.
 NAtoms=   12 NActive=   12 NUniq=   12 SFac= 1.00D+00 NAtFMM=   60 NAOKFM=F Big=F
 Integral buffers will be    131072 words long.
 Raffenetti 2 integral format.
 Two-electron integral symmetry is turned on.
 One-electron integrals computed using PRISM.
 NBasis=   289 RedAO= T EigKep=  1.86D-06  NBF=   212    77
 NBsUse=   287 1.00D-06 EigRej=  5.04D-07 NBFU=   210    77
 Initial guess from the checkpoint file:  "frequency_chks/12345ClBzAnionRadical_Freq.chk"
 B after Tr=    -0.000000    0.000000   -0.000000
         Rot=    1.000000   -0.000000    0.000000    0.000000 Ang=   0.00 deg.
 Initial guess orbital symmetries:
 Alpha Orbitals:
       Occupied  (A') (A') (A') (A') (A') (A') (A') (A') (A') (A')
                 (A') (A') (A') (A') (A") (A') (A") (A') (A') (A")
                 (A") (A') (A') (A') (A") (A') (A") (A") (A') (A")
                 (A') (A") (A") (A') (A') (A') (A') (A") (A') (A')
                 (A') (A') (A') (A') (A') (A') (A') (A') (A') (A')
                 (A') (A') (A') (A') (A') (A') (A') (A') (A') (A')
                 (A') (A')
       Virtual   (A') (A') (A') (A') (A') (A') (A') (A') (A') (A')
                 (A') (A') (A') (A') (A') (A') (A') (A') (A') (A')
                 (A') (A') (A') (A') (A') (A') (A') (A') (A') (A')
                 (A') (A') (A') (A') (A') (A') (A') (A') (A') (A')
                 (A') (A') (A') (A') (A') (A') (A') (A') (A') (A')
                 (A') (A') (A') (A') (A') (A') (A') (A') (A') (A')
                 (A') (A') (A') (A') (A') (A') (A') (A') (A') (A')
                 (A') (A') (A') (A') (A') (A') (A') (A') (A') (A')
                 (A') (A') (A') (A') (A') (A') (A') (A') (A') (A')
                 (A') (A') (A') (A') (A') (A') (A') (A') (A') (A')
                 (A') (A') (A') (A') (A') (A') (A') (A') (A') (A')
                 (A') (A') (A') (A') (A') (A') (A') (A') (A') (A')
                 (A') (A') (A') (A') (A') (A') (A') (A') (A') (A')
                 (A') (A') (A') (A') (A') (A') (A') (A') (A') (A')
                 (A') (A') (A') (A') (A') (A') (A') (A') (A') (A')
                 (A') (A') (A') (A') (A') (A') (A') (A') (A') (A")
                 (A") (A") (A") (A") (A") (A") (A") (A") (A") (A")
                 (A") (A") (A") (A") (A") (A") (A") (A") (A") (A")
                 (A") (A") (A") (A") (A") (A") (A") (A") (A") (A")
                 (A") (A") (A") (A") (A") (A") (A") (A") (A") (A")
                 (A") (A") (A") (A") (A") (A") (A") (A") (A") (A")
                 (A") (A") (A") (A") (A") (A") (A") (A") (A") (A")
                 (A") (A") (A") (A") (A")
 Beta  Orbitals:
       Occupied  (A') (A') (A') (A') (A') (A') (A') (A') (A') (A')
                 (A') (A') (A') (A') (A") (A') (A") (A') (A") (A')
                 (A") (A') (A') (A") (A') (A') (A") (A") (A') (A")
                 (A") (A") (A') (A') (A') (A') (A") (A') (A') (A')
                 (A') (A') (A') (A') (A') (A') (A') (A') (A') (A')
                 (A') (A') (A') (A') (A') (A') (A') (A') (A') (A')
                 (A')
       Virtual   (A') (A') (A') (A') (A') (A') (A') (A') (A') (A')
                 (A') (A') (A') (A') (A') (A') (A') (A') (A') (A')
                 (A') (A') (A') (A') (A') (A') (A') (A') (A') (A')
                 (A') (A') (A') (A') (A') (A') (A') (A') (A') (A')
                 (A') (A') (A') (A') (A') (A') (A') (A') (A') (A')
                 (A') (A') (A') (A') (A') (A') (A') (A') (A') (A')
                 (A') (A') (A') (A') (A') (A') (A') (A') (A') (A')
                 (A') (A') (A') (A') (A') (A') (A') (A') (A') (A')
                 (A') (A') (A') (A') (A') (A') (A') (A') (A') (A')
                 (A') (A') (A') (A') (A') (A') (A') (A') (A') (A')
                 (A') (A') (A') (A') (A') (A') (A') (A') (A') (A')
                 (A') (A') (A') (A') (A') (A') (A') (A') (A') (A')
                 (A') (A') (A') (A') (A') (A') (A') (A') (A') (A')
                 (A') (A') (A') (A') (A') (A') (A') (A') (A') (A')
                 (A') (A') (A') (A') (A') (A') (A') (A') (A') (A')
                 (A') (A') (A') (A') (A') (A') (A') (A') (A') (A')
                 (A") (A") (A") (A") (A") (A") (A") (A") (A") (A")
                 (A") (A") (A") (A") (A") (A") (A") (A") (A") (A")
                 (A") (A") (A") (A") (A") (A") (A") (A") (A") (A")
                 (A") (A") (A") (A") (A") (A") (A") (A") (A") (A")
                 (A") (A") (A") (A") (A") (A") (A") (A") (A") (A")
                 (A") (A") (A") (A") (A") (A") (A") (A") (A") (A")
                 (A") (A") (A") (A") (A") (A")
 Initial guess <Sx>= 0.0000 <Sy>= 0.0000 <Sz>= 0.5000 <S**2>= 0.7500 S= 0.5000
 Requested convergence on RMS density matrix=1.00D-08 within 128 cycles.
 Requested convergence on MAX density matrix=1.00D-06.
 Requested convergence on             energy=1.00D-06.
 No special actions if energy rises.
 EnCoef did     5 forward-backward iterations
 EnCoef did     2 forward-backward iterations
 EnCoef did     8 forward-backward iterations
 EnCoef did     7 forward-backward iterations
 Restarting incremental Fock formation.
 SCF Done:  E(UM062X) =  -2530.17691357     A.U. after   32 cycles
            NFock= 32  Conv=0.91D-08     -V/T= 2.0021
 <Sx>= 0.0000 <Sy>= 0.0000 <Sz>= 0.5000 <S**2>= 0.7534 S= 0.5017
 <L.S>=  0.00000000000    
 Annihilation of the first spin contaminant:
 S**2 before annihilation     0.7534,   after     0.7500

 **********************************************************************

            Population analysis using the SCF Density.

 **********************************************************************

 Orbital symmetries:
 Alpha Orbitals:
       Occupied  (A') (A') (A') (A') (A') (A') (A') (A') (A') (A')
                 (A') (A') (A') (A') (A') (A') (A') (A') (A") (A")
                 (A') (A') (A') (A') (A") (A") (A') (A') (A') (A")
                 (A') (A') (A') (A') (A') (A') (A') (A') (A') (A')
                 (A') (A') (A') (A') (A') (A") (A') (A') (A") (A')
                 (A") (A") (A') (A') (A') (A') (A") (A") (A') (A")
                 (A") (A')
       Virtual   (A') (A") (A') (A") (A') (A') (A') (A") (A') (A")
                 (A') (A') (A") (A') (A') (A") (A') (A") (A') (A')
                 (A') (A') (A") (A') (A") (A') (A') (A') (A") (A')
                 (A') (A") (A") (A') (A') (A") (A') (A') (A') (A')
                 (A") (A') (A') (A') (A') (A') (A') (A') (A') (A')
                 (A') (A') (A') (A') (A') (A') (A') (A") (A") (A')
                 (A') (A") (A') (A') (A") (A') (A') (A') (A') (A")
                 (A') (A") (A') (A") (A") (A') (A") (A") (A') (A')
                 (A') (A') (A") (A') (A') (A") (A') (A') (A") (A')
                 (A') (A') (A') (A") (A') (A") (A") (A") (A') (A')
                 (A") (A") (A') (A') (A') (A') (A') (A") (A') (A')
                 (A') (A') (A") (A') (A") (A') (A') (A') (A') (A")
                 (A') (A') (A') (A') (A') (A") (A") (A') (A') (A")
                 (A") (A') (A') (A') (A') (A') (A") (A') (A') (A')
                 (A") (A') (A') (A") (A') (A") (A") (A') (A') (A")
                 (A') (A') (A') (A") (A") (A") (A') (A") (A") (A')
                 (A") (A') (A') (A') (A') (A') (A') (A') (A') (A')
                 (A') (A') (A") (A') (A') (A') (A") (A") (A") (A")
                 (A') (A") (A') (A') (A') (A') (A') (A') (A') (A')
                 (A') (A') (A') (A') (A') (A') (A') (A') (A') (A')
                 (A') (A') (A') (A') (A') (A") (A") (A") (A") (A")
                 (A') (A') (A') (A') (A') (A') (A') (A') (A') (A')
                 (A') (A') (A') (A') (A')
 Beta  Orbitals:
       Occupied  (A') (A') (A') (A') (A') (A') (A') (A') (A') (A')
                 (A') (A') (A') (A') (A') (A') (A') (A') (A") (A")
                 (A') (A') (A') (A') (A") (A") (A') (A') (A') (A")
                 (A') (A') (A') (A') (A') (A') (A') (A') (A') (A')
                 (A') (A') (A') (A') (A') (A") (A') (A") (A') (A")
                 (A') (A") (A') (A') (A') (A') (A") (A") (A') (A")
                 (A")
       Virtual   (A') (A') (A") (A') (A") (A') (A') (A') (A") (A')
                 (A') (A") (A') (A") (A') (A') (A") (A') (A') (A")
                 (A') (A") (A') (A') (A') (A") (A') (A') (A') (A")
                 (A") (A') (A') (A") (A') (A') (A') (A") (A') (A')
                 (A') (A") (A') (A') (A') (A') (A') (A') (A') (A')
                 (A') (A') (A') (A') (A') (A') (A') (A') (A") (A")
                 (A') (A') (A") (A') (A') (A') (A") (A') (A') (A')
                 (A") (A') (A") (A') (A") (A") (A') (A") (A") (A')
                 (A') (A') (A') (A") (A') (A') (A") (A') (A') (A")
                 (A') (A') (A') (A') (A") (A') (A") (A") (A") (A')
                 (A') (A") (A") (A') (A') (A') (A') (A') (A') (A")
                 (A') (A') (A') (A") (A') (A") (A') (A') (A') (A')
                 (A") (A') (A') (A') (A') (A') (A") (A") (A') (A')
                 (A") (A") (A') (A') (A') (A') (A') (A") (A') (A')
                 (A') (A") (A') (A') (A") (A') (A") (A") (A') (A')
                 (A") (A') (A') (A') (A") (A") (A") (A') (A") (A")
                 (A') (A") (A') (A') (A') (A') (A') (A') (A') (A')
                 (A') (A') (A') (A") (A') (A') (A') (A") (A") (A")
                 (A") (A') (A") (A') (A') (A') (A') (A') (A') (A')
                 (A') (A') (A') (A') (A') (A') (A') (A') (A') (A')
                 (A') (A') (A') (A') (A') (A') (A") (A") (A") (A")
                 (A") (A') (A') (A') (A') (A') (A') (A') (A') (A')
                 (A') (A') (A') (A') (A') (A')
 The electronic state is 2-A'.
 Alpha  occ. eigenvalues -- -102.56704-102.56704-102.54474-102.54474-102.48331
 Alpha  occ. eigenvalues --  -10.49785 -10.49784 -10.48682 -10.48681 -10.45320
 Alpha  occ. eigenvalues --  -10.45170  -9.71061  -9.71061  -9.68868  -9.68867
 Alpha  occ. eigenvalues --   -9.62482  -7.43590  -7.43590  -7.42913  -7.42913
 Alpha  occ. eigenvalues --   -7.42888  -7.42888  -7.41417  -7.41417  -7.40720
 Alpha  occ. eigenvalues --   -7.40720  -7.40668  -7.40668  -7.35177  -7.34336
 Alpha  occ. eigenvalues --   -7.34278  -0.91683  -0.88638  -0.85175  -0.83780
 Alpha  occ. eigenvalues --   -0.78902  -0.75560  -0.69163  -0.67643  -0.57268
 Alpha  occ. eigenvalues --   -0.54722  -0.46407  -0.46354  -0.41582  -0.38972
 Alpha  occ. eigenvalues --   -0.38789  -0.37392  -0.34034  -0.33941  -0.32259
 Alpha  occ. eigenvalues --   -0.30805  -0.28862  -0.27904  -0.27062  -0.25184
 Alpha  occ. eigenvalues --   -0.25046  -0.24883  -0.22646  -0.19924  -0.16552
 Alpha  occ. eigenvalues --   -0.16383   0.01475
 Alpha virt. eigenvalues --    0.09448   0.11947   0.12122   0.12584   0.13392
 Alpha virt. eigenvalues --    0.14855   0.15111   0.16358   0.17151   0.17585
 Alpha virt. eigenvalues --    0.18176   0.18210   0.19026   0.19425   0.19481
 Alpha virt. eigenvalues --    0.21060   0.21896   0.22018   0.22069   0.22382
 Alpha virt. eigenvalues --    0.22747   0.23409   0.23798   0.24215   0.25308
 Alpha virt. eigenvalues --    0.25646   0.26792   0.27207   0.27520   0.28376
 Alpha virt. eigenvalues --    0.29095   0.29712   0.29852   0.30926   0.31431
 Alpha virt. eigenvalues --    0.31714   0.31942   0.32836   0.34458   0.34761
 Alpha virt. eigenvalues --    0.34955   0.35168   0.36400   0.36665   0.36942
 Alpha virt. eigenvalues --    0.39260   0.40093   0.40205   0.40544   0.41671
 Alpha virt. eigenvalues --    0.42897   0.43871   0.44258   0.45234   0.45360
 Alpha virt. eigenvalues --    0.54535   0.55205   0.56607   0.57994   0.58771
 Alpha virt. eigenvalues --    0.59134   0.60558   0.60715   0.62097   0.62364
 Alpha virt. eigenvalues --    0.62566   0.63756   0.64003   0.65332   0.66598
 Alpha virt. eigenvalues --    0.67458   0.68196   0.68715   0.74192   0.74250
 Alpha virt. eigenvalues --    0.74976   0.76955   0.77983   0.79636   0.80443
 Alpha virt. eigenvalues --    0.80453   0.82025   0.82781   0.84374   0.86066
 Alpha virt. eigenvalues --    0.91781   0.92522   0.97412   0.98468   1.00320
 Alpha virt. eigenvalues --    1.01543   1.01871   1.02008   1.03064   1.04122
 Alpha virt. eigenvalues --    1.04299   1.04594   1.04758   1.05154   1.07341
 Alpha virt. eigenvalues --    1.07603   1.08082   1.08681   1.09870   1.10989
 Alpha virt. eigenvalues --    1.11063   1.12175   1.12641   1.12893   1.14158
 Alpha virt. eigenvalues --    1.15575   1.16124   1.16393   1.18746   1.18919
 Alpha virt. eigenvalues --    1.20300   1.22662   1.25756   1.29918   1.34331
 Alpha virt. eigenvalues --    1.36655   1.37288   1.40020   1.41920   1.44679
 Alpha virt. eigenvalues --    1.45429   1.46974   1.47566   1.47618   1.48798
 Alpha virt. eigenvalues --    1.51469   1.52781   1.61819   1.63620   1.63982
 Alpha virt. eigenvalues --    1.71585   1.75886   1.80572   1.85684   1.91839
 Alpha virt. eigenvalues --    1.94109   1.94166   1.97820   2.01620   2.01982
 Alpha virt. eigenvalues --    2.04369   2.04431   2.11135   2.19629   2.20378
 Alpha virt. eigenvalues --    2.27867   2.35744   2.36108   2.40051   2.40243
 Alpha virt. eigenvalues --    2.43800   2.44274   2.44383   2.44896   2.45828
 Alpha virt. eigenvalues --    2.50464   2.52369   2.54896   2.56728   2.58791
 Alpha virt. eigenvalues --    2.60154   2.64300   2.64371   2.69611   2.69747
 Alpha virt. eigenvalues --    2.74164   2.75394   2.80531   2.81798   2.86335
 Alpha virt. eigenvalues --    2.90735   2.94939   2.95847   3.05746   3.05856
 Alpha virt. eigenvalues --    3.19621   3.25180   3.28658   3.31984   3.34584
 Alpha virt. eigenvalues --    3.40755   3.45524   3.53053   3.72090   3.82332
 Alpha virt. eigenvalues --    3.94569   4.08283   4.19263   4.94798  10.03514
 Alpha virt. eigenvalues --   10.11003  10.12999  10.15440  10.15618  23.51281
 Alpha virt. eigenvalues --   23.99485  24.04813  24.13861  24.18818  24.25040
 Alpha virt. eigenvalues --   26.00402  26.02953  26.07068  26.09411  26.17251
 Alpha virt. eigenvalues --   26.29319  26.31130  26.37928  26.39417  26.49958
 Alpha virt. eigenvalues --   26.64179  26.78800  26.83566  27.02935  27.15005
 Alpha virt. eigenvalues --  216.12956 216.21488 216.23612 216.26497 216.26547
  Beta  occ. eigenvalues -- -102.56657-102.56656-102.54400-102.54400-102.47939
  Beta  occ. eigenvalues --  -10.49718 -10.49717 -10.48692 -10.48692 -10.45181
  Beta  occ. eigenvalues --  -10.44781  -9.71036  -9.71035  -9.68826  -9.68826
  Beta  occ. eigenvalues --   -9.62266  -7.43491  -7.43491  -7.42892  -7.42892
  Beta  occ. eigenvalues --   -7.42867  -7.42867  -7.41255  -7.41255  -7.40694
  Beta  occ. eigenvalues --   -7.40694  -7.40639  -7.40639  -7.34335  -7.34170
  Beta  occ. eigenvalues --   -7.34122  -0.91381  -0.88371  -0.84744  -0.83463
  Beta  occ. eigenvalues --   -0.78463  -0.73939  -0.68352  -0.67398  -0.56634
  Beta  occ. eigenvalues --   -0.54461  -0.46141  -0.45681  -0.41134  -0.38584
  Beta  occ. eigenvalues --   -0.38541  -0.36567  -0.33843  -0.33561  -0.30549
  Beta  occ. eigenvalues --   -0.30304  -0.28756  -0.26941  -0.26754  -0.25022
  Beta  occ. eigenvalues --   -0.24735  -0.24686  -0.21996  -0.19194  -0.16252
  Beta  occ. eigenvalues --   -0.15882
  Beta virt. eigenvalues --    0.09611   0.11667   0.12329   0.12349   0.12636
  Beta virt. eigenvalues --    0.14405   0.14929   0.15251   0.16611   0.16649
  Beta virt. eigenvalues --    0.18043   0.18060   0.18333   0.19029   0.19220
  Beta virt. eigenvalues --    0.20088   0.21324   0.21694   0.21791   0.21837
  Beta virt. eigenvalues --    0.22524   0.23040   0.23092   0.23594   0.24025
  Beta virt. eigenvalues --    0.25035   0.26440   0.26615   0.26940   0.27446
  Beta virt. eigenvalues --    0.28913   0.29134   0.29445   0.30195   0.30627
  Beta virt. eigenvalues --    0.30927   0.31681   0.31713   0.33161   0.34668
  Beta virt. eigenvalues --    0.34892   0.35075   0.35541   0.36333   0.36747
  Beta virt. eigenvalues --    0.36984   0.39587   0.40463   0.40518   0.41092
  Beta virt. eigenvalues --    0.41753   0.43304   0.44065   0.44728   0.45657
  Beta virt. eigenvalues --    0.45756   0.55143   0.55518   0.56975   0.58363
  Beta virt. eigenvalues --    0.59293   0.59511   0.60933   0.60997   0.62345
  Beta virt. eigenvalues --    0.62703   0.62781   0.63965   0.64009   0.65335
  Beta virt. eigenvalues --    0.67085   0.67629   0.68358   0.68693   0.74338
  Beta virt. eigenvalues --    0.74517   0.75534   0.77391   0.78162   0.79925
  Beta virt. eigenvalues --    0.80625   0.81235   0.82782   0.83174   0.84522
  Beta virt. eigenvalues --    0.86334   0.92068   0.92579   0.97497   0.98626
  Beta virt. eigenvalues --    1.00471   1.01753   1.02065   1.02210   1.03159
  Beta virt. eigenvalues --    1.04185   1.04447   1.04968   1.05033   1.05881
  Beta virt. eigenvalues --    1.07714   1.07802   1.08245   1.09123   1.10049
  Beta virt. eigenvalues --    1.11169   1.11247   1.12301   1.13150   1.13250
  Beta virt. eigenvalues --    1.14608   1.15712   1.16495   1.16813   1.19146
  Beta virt. eigenvalues --    1.19365   1.20583   1.22978   1.25827   1.30328
  Beta virt. eigenvalues --    1.34690   1.36851   1.37472   1.40189   1.42085
  Beta virt. eigenvalues --    1.44901   1.46030   1.47518   1.47596   1.47662
  Beta virt. eigenvalues --    1.49196   1.51825   1.52459   1.62141   1.64047
  Beta virt. eigenvalues --    1.64305   1.71694   1.76043   1.81265   1.85991
  Beta virt. eigenvalues --    1.92164   1.94323   1.94567   1.98133   2.02007
  Beta virt. eigenvalues --    2.02579   2.04685   2.04814   2.11628   2.19908
  Beta virt. eigenvalues --    2.20502   2.28129   2.36159   2.36623   2.40191
  Beta virt. eigenvalues --    2.40413   2.44015   2.44643   2.44765   2.45053
  Beta virt. eigenvalues --    2.46384   2.50970   2.52617   2.55316   2.56891
  Beta virt. eigenvalues --    2.59353   2.60537   2.64783   2.64956   2.69968
  Beta virt. eigenvalues --    2.70515   2.74367   2.75955   2.80926   2.82162
  Beta virt. eigenvalues --    2.86797   2.91062   2.95151   2.96376   3.06015
  Beta virt. eigenvalues --    3.06408   3.20030   3.25722   3.29105   3.33392
  Beta virt. eigenvalues --    3.34858   3.41097   3.46034   3.53413   3.72554
  Beta virt. eigenvalues --    3.83260   3.94843   4.09076   4.19576   4.95532
  Beta virt. eigenvalues --   10.03564  10.11022  10.13083  10.15454  10.15726
  Beta virt. eigenvalues --   23.51346  23.99566  24.04979  24.13959  24.19140
  Beta virt. eigenvalues --   24.25143  26.00605  26.03082  26.07473  26.09555
  Beta virt. eigenvalues --   26.17695  26.29511  26.31503  26.38104  26.39881
  Beta virt. eigenvalues --   26.50222  26.64952  26.79138  26.84774  27.03289
  Beta virt. eigenvalues --   27.15944 216.13104 216.21567 216.23874 216.26651
  Beta virt. eigenvalues --  216.26864
          Condensed to atoms (all electrons):
               1          2          3          4          5          6
     1  C   25.292848  -0.492139  -2.242504   2.892559 -12.474213  -8.001687
     2  C   -0.492139  19.826929  -0.492141  -5.896963   0.186080  -5.896966
     3  C   -2.242504  -0.492141  25.292847  -8.001686 -12.474213   2.892559
     4  C    2.892559  -5.896963  -8.001686  26.253111   2.400145  -2.863441
     5  C  -12.474213   0.186080 -12.474213   2.400145  33.902110   2.400146
     6  C   -8.001687  -5.896966   2.892559  -2.863441   2.400146  26.253115
     7  Cl   1.485534   0.800960   0.487672  -0.668158  -1.940465  -3.065209
     8  Cl  -0.427709   0.286049  -0.461480   0.232879  -0.592826  -1.416752
     9  Cl  -0.034811  -3.321169  -0.034809  -2.854082  -1.389632  -2.854082
    10  Cl  -0.461480   0.286049  -0.427709  -1.416752  -0.592826   0.232879
    11  Cl   0.487672   0.800960   1.485534  -3.065209  -1.940464  -0.668158
    12  H    0.018250   0.295875   0.018250  -0.237434  -0.104195  -0.237433
               7          8          9         10         11         12
     1  C    1.485534  -0.427709  -0.034811  -0.461480   0.487672   0.018250
     2  C    0.800960   0.286049  -3.321169   0.286049   0.800960   0.295875
     3  C    0.487672  -0.461480  -0.034809  -0.427709   1.485534   0.018250
     4  C   -0.668158   0.232879  -2.854082  -1.416752  -3.065209  -0.237434
     5  C   -1.940465  -0.592826  -1.389632  -0.592826  -1.940464  -0.104195
     6  C   -3.065209  -1.416752  -2.854082   0.232879  -0.668158  -0.237433
     7  Cl  18.763168  -0.009684   0.417449   0.048792   0.130759   0.173323
     8  Cl  -0.009684  18.225631   0.538272   0.050765   0.048792   0.012836
     9  Cl   0.417449   0.538272  25.077923   0.538272   0.417449   0.061873
    10  Cl   0.048792   0.050765   0.538272  18.225632  -0.009684   0.012836
    11  Cl   0.130759   0.048792   0.417449  -0.009684  18.763169   0.173323
    12  H    0.173323   0.012836   0.061873   0.012836   0.173323   0.630265
          Atomic-Atomic Spin Densities.
               1          2          3          4          5          6
     1  C    1.021808   1.784599   0.333167  -0.090356  -2.191858  -2.967226
     2  C    1.784599   3.121206   1.784597  -1.443256  -3.640836  -1.443257
     3  C    0.333167   1.784597   1.021806  -2.967224  -2.191856  -0.090356
     4  C   -0.090356  -1.443256  -2.967224   7.614381   3.696949   0.676974
     5  C   -2.191858  -3.640836  -2.191856   3.696949   8.627035   3.696949
     6  C   -2.967226  -1.443257  -0.090356   0.676974   3.696949   7.614384
     7  Cl   1.352663   0.913063   0.194683  -0.146478  -2.110870  -2.399509
     8  Cl   0.443519   0.172660  -0.019170  -0.266891  -0.502979  -1.329783
     9  Cl  -0.043461  -2.089073  -0.043460  -2.915887  -1.935630  -2.915888
    10  Cl  -0.019170   0.172660   0.443519  -1.329783  -0.502979  -0.266891
    11  Cl   0.194683   0.913063   1.352663  -2.399508  -2.110870  -0.146478
    12  H    0.179044   0.248716   0.179044  -0.152271  -0.791008  -0.152271
               7          8          9         10         11         12
     1  C    1.352663   0.443519  -0.043461  -0.019170   0.194683   0.179044
     2  C    0.913063   0.172660  -2.089073   0.172660   0.913063   0.248716
     3  C    0.194683  -0.019170  -0.043460   0.443519   1.352663   0.179044
     4  C   -0.146478  -0.266891  -2.915887  -1.329783  -2.399508  -0.152271
     5  C   -2.110870  -0.502979  -1.935630  -0.502979  -2.110870  -0.791008
     6  C   -2.399509  -1.329783  -2.915888  -0.266891  -0.146478  -0.152271
     7  Cl   1.081928   0.296660   0.425074   0.047217   0.168777   0.150515
     8  Cl   0.296660   0.304795   0.791602   0.050677   0.047217   0.022657
     9  Cl   0.425074   0.791602   7.388157   0.791602   0.425074   0.057187
    10  Cl   0.047217   0.050677   0.791602   0.304795   0.296660   0.022657
    11  Cl   0.168777   0.047217   0.425074   0.296660   1.081928   0.150515
    12  H    0.150515   0.022657   0.057187   0.022657   0.150515   0.096223
 Mulliken charges and spin densities:
               1          2
     1  C   -0.042321  -0.002587
     2  C   -0.383524   0.494141
     3  C   -0.042321  -0.002587
     4  C   -0.774970   0.276648
     5  C   -1.379648   0.042049
     6  C   -0.774970   0.276648
     7  Cl   0.375859  -0.026275
     8  Cl   0.513227   0.010965
     9  Cl   0.437349  -0.064702
    10  Cl   0.513227   0.010965
    11  Cl   0.375859  -0.026275
    12  H    0.182232   0.011008
 Sum of Mulliken charges =  -1.00000   1.00000
 Mulliken charges and spin densities with hydrogens summed into heavy atoms:
               1          2
     1  C   -0.042321  -0.002587
     2  C   -0.383524   0.494141
     3  C   -0.042321  -0.002587
     4  C   -0.774970   0.276648
     5  C   -1.197416   0.053057
     6  C   -0.774970   0.276648
     7  Cl   0.375859  -0.026275
     8  Cl   0.513227   0.010965
     9  Cl   0.437349  -0.064702
    10  Cl   0.513227   0.010965
    11  Cl   0.375859  -0.026275
 Electronic spatial extent (au):  <R**2>=           3470.4796
 Charge=             -1.0000 electrons
 Dipole moment (field-independent basis, Debye):
    X=             -0.0000    Y=              5.6848    Z=              0.0000  Tot=              5.6848
 Quadrupole moment (field-independent basis, Debye-Ang):
   XX=           -124.2384   YY=           -130.8778   ZZ=           -103.3240
   XY=              0.0000   XZ=              0.0000   YZ=              0.0000
 Traceless Quadrupole moment (field-independent basis, Debye-Ang):
   XX=             -4.7583   YY=            -11.3978   ZZ=             16.1561
   XY=              0.0000   XZ=              0.0000   YZ=              0.0000
 Octapole moment (field-independent basis, Debye-Ang**2):
  XXX=              0.0000  YYY=             77.7609  ZZZ=              0.0000  XYY=             -0.0000
  XXY=             -8.0067  XXZ=              0.0000  XZZ=              0.0000  YZZ=              1.4201
  YYZ=              0.0000  XYZ=              0.0000
 Hexadecapole moment (field-independent basis, Debye-Ang**3):
 XXXX=          -2716.6058 YYYY=          -2266.3463 ZZZZ=           -131.3717 XXXY=              0.0000
 XXXZ=              0.0000 YYYX=              0.0000 YYYZ=              0.0000 ZZZX=              0.0000
 ZZZY=              0.0000 XXYY=           -810.0581 XXZZ=           -461.9576 YYZZ=           -364.6568
 XXYZ=              0.0000 YYXZ=              0.0000 ZZXY=              0.0000
 N-N= 1.068186944732D+03 E-N=-8.157115098469D+03  KE= 2.524881818494D+03
 Symmetry A'   KE= 2.289271389901D+03
 Symmetry A"   KE= 2.356104285930D+02
 Symmetry A'   SP= 1.000000000000D+00
 Symmetry A"   SP= 2.505872096739D-14
                          Isotropic Fermi Contact Couplings
        Atom                 a.u.       MegaHertz       Gauss      10(-4) cm-1
     1  C(13)             -0.01281     -14.40456      -5.13990      -4.80484
     2  C(13)              0.37139     417.51302     148.97903     139.26735
     3  C(13)             -0.01281     -14.40455      -5.13990      -4.80484
     4  C(13)              0.07199      80.93196      28.87854      26.99600
     5  C(13)              0.00209       2.34744       0.83763       0.78302
     6  C(13)              0.07199      80.93197      28.87854      26.99600
     7  Cl(35)             0.07035      30.84799      11.00733      10.28978
     8  Cl(35)             0.11655      51.10200      18.23446      17.04579
     9  Cl(35)             0.59244     259.76382      92.69019      86.64788
    10  Cl(35)             0.11655      51.10200      18.23447      17.04579
    11  Cl(35)             0.07035      30.84799      11.00733      10.28978
    12  H(1)               0.00236      10.53477       3.75907       3.51402
 --------------------------------------------------------
       Center         ----  Spin Dipole Couplings  ----
                      3XX-RR        3YY-RR        3ZZ-RR
 --------------------------------------------------------
     1   Atom        0.066548     -0.010595     -0.055953
     2   Atom       -0.180144      0.321306     -0.141162
     3   Atom        0.066548     -0.010595     -0.055953
     4   Atom        0.008217     -0.007847     -0.000371
     5   Atom        0.009225      0.014485     -0.023710
     6   Atom        0.008217     -0.007847     -0.000371
     7   Atom        0.063639      0.027401     -0.091040
     8   Atom        0.213027     -0.047974     -0.165053
     9   Atom       -0.805226      1.581868     -0.776642
    10   Atom        0.213027     -0.047974     -0.165053
    11   Atom        0.063639      0.027401     -0.091040
    12   Atom        0.001022      0.001165     -0.002187
 --------------------------------------------------------
                        XY            XZ            YZ
 --------------------------------------------------------
     1   Atom        0.016640      0.000000      0.000000
     2   Atom       -0.000000      0.000000      0.000000
     3   Atom       -0.016640      0.000000      0.000000
     4   Atom       -0.004147      0.000000      0.000000
     5   Atom       -0.000000      0.000000      0.000000
     6   Atom        0.004147      0.000000      0.000000
     7   Atom       -0.141927      0.000000      0.000000
     8   Atom        0.188370      0.000000      0.000000
     9   Atom       -0.000000      0.000000      0.000000
    10   Atom       -0.188370      0.000000      0.000000
    11   Atom        0.141927      0.000000      0.000000
    12   Atom       -0.000000      0.000000      0.000000
 --------------------------------------------------------


 ---------------------------------------------------------------------------------
              Anisotropic Spin Dipole Couplings in Principal Axis System
 ---------------------------------------------------------------------------------

       Atom             a.u.   MegaHertz   Gauss  10(-4) cm-1        Axes

              Baa    -0.0560    -7.508    -2.679    -2.505  0.0000  0.0000  1.0000
     1 C(13)  Bbb    -0.0140    -1.883    -0.672    -0.628 -0.2022  0.9793 -0.0000
              Bcc     0.0700     9.391     3.351     3.133  0.9793  0.2022  0.0000
 
              Baa    -0.1801   -24.174    -8.626    -8.063  1.0000  0.0000  0.0000
     2 C(13)  Bbb    -0.1412   -18.943    -6.759    -6.319  0.0000  0.0000  1.0000
              Bcc     0.3213    43.116    15.385    14.382 -0.0000  1.0000  0.0000
 
              Baa    -0.0560    -7.508    -2.679    -2.505  0.0000  0.0000  1.0000
     3 C(13)  Bbb    -0.0140    -1.883    -0.672    -0.628  0.2022  0.9793  0.0000
              Bcc     0.0700     9.391     3.351     3.133  0.9793 -0.2022 -0.0000
 
              Baa    -0.0089    -1.188    -0.424    -0.396  0.2360  0.9717  0.0000
     4 C(13)  Bbb    -0.0004    -0.050    -0.018    -0.017  0.0000  0.0000  1.0000
              Bcc     0.0092     1.238     0.442     0.413  0.9717 -0.2360 -0.0000
 
              Baa    -0.0237    -3.182    -1.135    -1.061  0.0000  0.0000  1.0000
     5 C(13)  Bbb     0.0092     1.238     0.442     0.413  1.0000  0.0000  0.0000
              Bcc     0.0145     1.944     0.694     0.648 -0.0000  1.0000  0.0000
 
              Baa    -0.0089    -1.188    -0.424    -0.396 -0.2360  0.9717 -0.0000
     6 C(13)  Bbb    -0.0004    -0.050    -0.018    -0.017  0.0000  0.0000  1.0000
              Bcc     0.0092     1.238     0.442     0.413  0.9717  0.2360  0.0000
 
              Baa    -0.0976    -5.106    -1.822    -1.703  0.6608  0.7505  0.0000
     7 Cl(35) Bbb    -0.0910    -4.765    -1.700    -1.589  0.0000  0.0000  1.0000
              Bcc     0.1886     9.871     3.522     3.293  0.7505 -0.6608 -0.0000
 
              Baa    -0.1651    -8.639    -3.082    -2.881  0.0000  0.0000  1.0000
     8 Cl(35) Bbb    -0.1466    -7.674    -2.738    -2.560 -0.4640  0.8859 -0.0000
              Bcc     0.3117    16.313     5.821     5.441  0.8859  0.4640  0.0000
 
              Baa    -0.8052   -42.144   -15.038   -14.058  1.0000  0.0000  0.0000
     9 Cl(35) Bbb    -0.7766   -40.648   -14.504   -13.559  0.0000  0.0000  1.0000
              Bcc     1.5819    82.791    29.542    27.616 -0.0000  1.0000  0.0000
 
              Baa    -0.1651    -8.639    -3.082    -2.881  0.0000  0.0000  1.0000
    10 Cl(35) Bbb    -0.1466    -7.674    -2.738    -2.560  0.4640  0.8859  0.0000
              Bcc     0.3117    16.313     5.821     5.441  0.8859 -0.4640 -0.0000
 
              Baa    -0.0976    -5.106    -1.822    -1.703 -0.6608  0.7505 -0.0000
    11 Cl(35) Bbb    -0.0910    -4.765    -1.700    -1.589  0.0000  0.0000  1.0000
              Bcc     0.1886     9.871     3.522     3.293  0.7505  0.6608  0.0000
 
              Baa    -0.0022    -1.167    -0.416    -0.389  0.0000  0.0000  1.0000
    12 H(1)   Bbb     0.0010     0.545     0.195     0.182  1.0000  0.0000  0.0000
              Bcc     0.0012     0.622     0.222     0.207 -0.0000  1.0000  0.0000
 

 ---------------------------------------------------------------------------------

 Calling FoFJK, ICntrl=      2127 FMM=F ISym2X=1 I1Cent= 0 IOpClX= 1 NMat=1 NMatS=1 NMatT=0.
 ***** Axes restored to original set *****
 -------------------------------------------------------------------
 Center     Atomic                   Forces (Hartrees/Bohr)
 Number     Number              X              Y              Z
 -------------------------------------------------------------------
      1        6           0.053765278   -0.012184321   -0.000000000
      2        6           0.002278503   -0.082942381    0.000000000
      3        6          -0.053015260   -0.015117637    0.000000000
      4        6          -0.034793743    0.017482559   -0.000000000
      5        6          -0.000116190    0.004228617   -0.000000000
      6        6           0.033781464    0.019366436   -0.000000000
      7       17          -0.024688815   -0.017018813    0.000000000
      8       17          -0.036156404    0.018497204   -0.000000000
      9       17          -0.001442382    0.052505615   -0.000000000
     10       17           0.035086375    0.020454331   -0.000000000
     11       17           0.025585939   -0.015637730   -0.000000000
     12        1          -0.000284766    0.010366121   -0.000000000
 -------------------------------------------------------------------
 Cartesian Forces:  Max     0.082942381 RMS     0.025807524

 GradGradGradGradGradGradGradGradGradGradGradGradGradGradGradGradGradGrad
 Berny optimization.
 FormGI is forming the generalized inverse of G from B-inverse, IUseBI=4.
 Internal  Forces:  Max     0.052525423 RMS     0.013273330
 Search for a local minimum.
 Step number   1 out of a maximum of   64
 All quantities printed in internal units (Hartrees-Bohrs-Radians)
 Mixed Optimization -- RFO/linear search
 Second derivative matrix not updated -- first step.
 ITU=  0
     Eigenvalues ---    0.02037   0.02038   0.02040   0.02043   0.02045
     Eigenvalues ---    0.02055   0.02060   0.02074   0.02084   0.16000
     Eigenvalues ---    0.19466   0.23488   0.25000   0.25000   0.25000
     Eigenvalues ---    0.25000   0.25000   0.25000   0.25000   0.33824
     Eigenvalues ---    0.34594   0.34594   0.35751   0.35751   0.41443
     Eigenvalues ---    0.41631   0.44918   0.45029   0.45320   0.45464
 RFO step:  Lambda=-2.92714691D-02 EMin= 2.03681441D-02
 Linear search not attempted -- first point.
 Maximum step size (   0.300) exceeded in Quadratic search.
    -- Step size scaled by   0.958
 Iteration  1 RMS(Cart)=  0.02888179 RMS(Int)=  0.00338198
 Iteration  2 RMS(Cart)=  0.00325971 RMS(Int)=  0.00002207
 Iteration  3 RMS(Cart)=  0.00000001 RMS(Int)=  0.00002207
 ClnCor:  largest displacement from symmetrization is 6.42D-09 for atom    12.
 Variable       Old X    -DE/DX   Delta X   Delta X   Delta X     New X
                                 (Linear)    (Quad)   (Total)
    R1        2.65209  -0.02215   0.00000  -0.04492  -0.04489   2.60720
    R2        2.65371  -0.00940   0.00000  -0.01883  -0.01882   2.63488
    R3        3.21473   0.04061   0.00000   0.10064   0.10064   3.31536
    R4        2.65209  -0.02215   0.00000  -0.04492  -0.04489   2.60720
    R5        3.59495   0.05253   0.00000   0.22482   0.22482   3.81978
    R6        2.65371  -0.00940   0.00000  -0.01882  -0.01882   2.63488
    R7        3.21473   0.04061   0.00000   0.10064   0.10064   3.31536
    R8        2.64636  -0.01250   0.00000  -0.02403  -0.02407   2.62229
    R9        3.23339   0.02998   0.00000   0.07659   0.07659   3.30998
   R10        2.64636  -0.01250   0.00000  -0.02403  -0.02407   2.62229
   R11        2.07628  -0.01037   0.00000  -0.02705  -0.02705   2.04923
   R12        3.23339   0.02998   0.00000   0.07659   0.07659   3.30998
    A1        2.10638  -0.00136   0.00000  -0.00596  -0.00593   2.10045
    A2        2.09254   0.00155   0.00000   0.00598   0.00596   2.09851
    A3        2.08426  -0.00020   0.00000  -0.00002  -0.00004   2.08423
    A4        2.07096   0.00613   0.00000   0.01851   0.01858   2.08953
    A5        2.10612  -0.00307   0.00000  -0.00925  -0.00929   2.09683
    A6        2.10612  -0.00307   0.00000  -0.00925  -0.00929   2.09683
    A7        2.10638  -0.00136   0.00000  -0.00596  -0.00593   2.10045
    A8        2.09254   0.00155   0.00000   0.00598   0.00596   2.09851
    A9        2.08426  -0.00020   0.00000  -0.00002  -0.00004   2.08423
   A10        2.10167  -0.00201   0.00000  -0.00578  -0.00581   2.09585
   A11        2.12739   0.00196   0.00000   0.00617   0.00619   2.13358
   A12        2.05413   0.00005   0.00000  -0.00040  -0.00038   2.05375
   A13        2.07932   0.00061   0.00000   0.00497   0.00490   2.08422
   A14        2.10193  -0.00030   0.00000  -0.00249  -0.00245   2.09948
   A15        2.10193  -0.00030   0.00000  -0.00249  -0.00245   2.09948
   A16        2.10167  -0.00201   0.00000  -0.00578  -0.00581   2.09585
   A17        2.12739   0.00196   0.00000   0.00617   0.00619   2.13358
   A18        2.05413   0.00005   0.00000  -0.00040  -0.00038   2.05375
    D1        0.00000  -0.00000   0.00000  -0.00000   0.00000   0.00000
    D2        3.14159  -0.00000   0.00000  -0.00000   0.00000   3.14159
    D3        3.14159   0.00000   0.00000   0.00000   0.00000   3.14159
    D4        0.00000  -0.00000   0.00000  -0.00000   0.00000   0.00000
    D5        0.00000   0.00000   0.00000  -0.00000   0.00000   0.00000
    D6        3.14159   0.00000   0.00000  -0.00000   0.00000   3.14159
    D7        3.14159  -0.00000   0.00000  -0.00000   0.00000   3.14159
    D8        0.00000   0.00000   0.00000  -0.00000   0.00000   0.00000
    D9        0.00000   0.00000   0.00000   0.00000   0.00000   0.00000
   D10        3.14159  -0.00000   0.00000   0.00000   0.00000   3.14159
   D11        3.14159   0.00000   0.00000   0.00000   0.00000   3.14159
   D12        0.00000   0.00000   0.00000   0.00000   0.00000   0.00000
   D13        0.00000  -0.00000   0.00000  -0.00000   0.00000   0.00000
   D14        3.14159  -0.00000   0.00000  -0.00000   0.00000   3.14159
   D15        3.14159   0.00000   0.00000  -0.00000   0.00000   3.14159
   D16        0.00000  -0.00000   0.00000  -0.00000   0.00000   0.00000
   D17        0.00000  -0.00000   0.00000   0.00000   0.00000   0.00000
   D18        3.14159  -0.00000   0.00000   0.00000   0.00000   3.14159
   D19        3.14159   0.00000   0.00000   0.00000   0.00000   3.14159
   D20        0.00000   0.00000   0.00000   0.00000   0.00000   0.00000
   D21        0.00000   0.00000   0.00000   0.00000   0.00000   0.00000
   D22        3.14159  -0.00000   0.00000   0.00000   0.00000   3.14159
   D23        3.14159   0.00000   0.00000   0.00000   0.00000   3.14159
   D24        0.00000  -0.00000   0.00000   0.00000   0.00000   0.00000
         Item               Value     Threshold  Converged?
 Maximum Force            0.052525     0.000450     NO 
 RMS     Force            0.013273     0.000300     NO 
 Maximum Displacement     0.153137     0.001800     NO 
 RMS     Displacement     0.031053     0.001200     NO 
 Predicted change in Energy=-1.592799D-02
 GradGradGradGradGradGradGradGradGradGradGradGradGradGradGradGradGradGrad

                          Input orientation:                          
 ---------------------------------------------------------------------
 Center     Atomic      Atomic             Coordinates (Angstroms)
 Number     Number       Type             X           Y           Z
 ---------------------------------------------------------------------
      1          6           0       -3.182906    0.127773    0.000000
      2          6           0       -2.009231    0.853015    0.000000
      3          6           0       -0.797510    0.193302    0.000000
      4          6           0       -0.754168   -1.200343    0.000000
      5          6           0       -1.932699   -1.932914    0.000000
      6          6           0       -3.149671   -1.266150    0.000000
      7         17           0       -4.608401   -2.235730    0.000000
      8         17           0       -4.731221    0.952813    0.000000
      9         17           0       -2.064739    2.873592    0.000000
     10         17           0        0.703174    1.102102    0.000000
     11         17           0        0.755593   -2.088376    0.000000
     12          1           0       -1.902920   -3.016913    0.000000
 ---------------------------------------------------------------------
                    Distance matrix (angstroms):
                    1          2          3          4          5
     1  C    0.000000
     2  C    1.379670   0.000000
     3  C    2.386295   1.379670   0.000000
     4  C    2.768151   2.406546   1.394319   0.000000
     5  C    2.410280   2.786980   2.410280   1.387659   0.000000
     6  C    1.394319   2.406546   2.768151   2.396407   1.387658
     7  Cl   2.760106   4.036834   4.519191   3.990883   2.692783
     8  Cl   1.754415   2.723818   4.006362   4.522503   4.019844
     9  Cl   2.964763   2.021339   2.964763   4.279549   4.808319
    10  Cl   4.006362   2.723818   1.754415   2.724903   4.019844
    11  Cl   4.519191   4.036835   2.760106   1.751565   2.692783
    12  H    3.395204   3.871388   3.395204   2.149316   1.084407
                    6          7          8          9         10
     6  C    0.000000
     7  Cl   1.751565   0.000000
     8  Cl   2.724903   3.190908   0.000000
     9  Cl   4.279549   5.707486   3.286262   0.000000
    10  Cl   4.522503   6.273273   5.436445   3.286262   0.000000
    11  Cl   3.990883   5.366018   6.273273   5.707486   3.190908
    12  H    2.149316   2.816003   4.874219   5.892727   4.874219
                   11         12
    11  Cl   0.000000
    12  H    2.816003   0.000000
 Stoichiometry    C6HCl5(1-,2)
 Framework group  CS[SG(C6HCl5)]
 Deg. of freedom    21
 Full point group                 CS      NOp   2
 Largest Abelian subgroup         CS      NOp   2
 Largest concise Abelian subgroup C1      NOp   1
                         Standard orientation:                         
 ---------------------------------------------------------------------
 Center     Atomic      Atomic             Coordinates (Angstroms)
 Number     Number       Type             X           Y           Z
 ---------------------------------------------------------------------
      1          6           0       -1.193148   -0.259767    0.000000
      2          6           0        0.000000   -0.952505    0.000000
      3          6           0        1.193148   -0.259767   -0.000000
      4          6           0        1.198204    1.134543   -0.000000
      5          6           0       -0.000000    1.834475   -0.000000
      6          6           0       -1.198204    1.134543    0.000000
      7         17           0       -2.683009    2.063700    0.000000
      8         17           0       -2.718222   -1.127014    0.000000
      9         17           0        0.000000   -2.973845    0.000000
     10         17           0        2.718222   -1.127014   -0.000000
     11         17           0        2.683009    2.063700   -0.000000
     12          1           0       -0.000000    2.918882   -0.000000
 ---------------------------------------------------------------------
 Rotational constants (GHZ):           0.6411416           0.4641516           0.2692380
 Standard basis: 6-311++G(d,p) (5D, 7F)
 There are   223 symmetry adapted cartesian basis functions of A'  symmetry.
 There are    77 symmetry adapted cartesian basis functions of A"  symmetry.
 There are   212 symmetry adapted basis functions of A'  symmetry.
 There are    77 symmetry adapted basis functions of A"  symmetry.
   289 basis functions,   490 primitive gaussians,   300 cartesian basis functions
    62 alpha electrons       61 beta electrons
       nuclear repulsion energy      1055.1855280937 Hartrees.
 NAtoms=   12 NActive=   12 NUniq=   12 SFac= 1.00D+00 NAtFMM=   60 NAOKFM=F Big=F
 Integral buffers will be    131072 words long.
 Raffenetti 2 integral format.
 Two-electron integral symmetry is turned on.
 One-electron integrals computed using PRISM.
 NBasis=   289 RedAO= T EigKep=  1.83D-06  NBF=   212    77
 NBsUse=   287 1.00D-06 EigRej=  4.93D-07 NBFU=   210    77
 Initial guess from the checkpoint file:  "frequency_chks/12345ClBzAnionRadical_Freq.chk"
 B after Tr=    -0.000000   -0.000000    0.000000
         Rot=    1.000000    0.000000   -0.000000    0.000000 Ang=   0.00 deg.
 Initial guess orbital symmetries:
 Alpha Orbitals:
       Occupied  (A') (A') (A') (A') (A') (A') (A') (A') (A') (A')
                 (A') (A') (A') (A') (A') (A') (A') (A') (A") (A")
                 (A') (A') (A') (A') (A") (A") (A') (A') (A') (A")
                 (A') (A') (A') (A') (A') (A') (A') (A') (A') (A')
                 (A') (A') (A') (A') (A') (A") (A') (A') (A") (A')
                 (A") (A") (A') (A') (A') (A') (A") (A") (A') (A")
                 (A") (A')
       Virtual   (A') (A") (A') (A") (A') (A') (A') (A") (A') (A")
                 (A') (A') (A") (A') (A') (A") (A') (A") (A') (A')
                 (A') (A') (A") (A') (A") (A') (A') (A') (A") (A')
                 (A') (A") (A") (A') (A') (A") (A') (A') (A') (A')
                 (A") (A') (A') (A') (A') (A') (A') (A') (A') (A')
                 (A') (A') (A') (A') (A') (A') (A') (A") (A") (A')
                 (A') (A") (A') (A') (A") (A') (A') (A') (A') (A")
                 (A') (A") (A') (A") (A") (A') (A") (A") (A') (A')
                 (A') (A') (A") (A') (A') (A") (A') (A') (A") (A')
                 (A') (A') (A') (A") (A') (A") (A") (A") (A') (A')
                 (A") (A") (A') (A') (A') (A') (A') (A") (A') (A')
                 (A') (A') (A") (A') (A") (A') (A') (A') (A') (A")
                 (A') (A') (A') (A') (A') (A") (A") (A') (A') (A")
                 (A") (A') (A') (A') (A') (A') (A") (A') (A') (A')
                 (A") (A') (A') (A") (A') (A") (A") (A') (A') (A")
                 (A') (A') (A') (A") (A") (A") (A') (A") (A") (A')
                 (A") (A') (A') (A') (A') (A') (A') (A') (A') (A')
                 (A') (A') (A") (A') (A') (A') (A") (A") (A") (A")
                 (A') (A") (A') (A') (A') (A') (A') (A') (A') (A')
                 (A') (A') (A') (A') (A') (A') (A') (A') (A') (A')
                 (A') (A') (A') (A') (A') (A") (A") (A") (A") (A")
                 (A') (A') (A') (A') (A') (A') (A') (A') (A') (A')
                 (A') (A') (A') (A') (A')
 Beta  Orbitals:
       Occupied  (A') (A') (A') (A') (A') (A') (A') (A') (A') (A')
                 (A') (A') (A') (A') (A') (A') (A') (A') (A") (A")
                 (A') (A') (A') (A') (A") (A") (A') (A') (A') (A")
                 (A') (A') (A') (A') (A') (A') (A') (A') (A') (A')
                 (A') (A') (A') (A') (A') (A") (A') (A") (A') (A")
                 (A') (A") (A') (A') (A') (A') (A") (A") (A') (A")
                 (A")
       Virtual   (A') (A') (A") (A') (A") (A') (A') (A') (A") (A')
                 (A') (A") (A') (A") (A') (A') (A") (A') (A') (A")
                 (A') (A") (A') (A') (A') (A") (A') (A') (A') (A")
                 (A") (A') (A') (A") (A') (A') (A') (A") (A') (A')
                 (A') (A") (A') (A') (A') (A') (A') (A') (A') (A')
                 (A') (A') (A') (A') (A') (A') (A') (A') (A") (A")
                 (A') (A') (A") (A') (A') (A') (A") (A') (A') (A')
                 (A") (A') (A") (A') (A") (A") (A') (A") (A") (A')
                 (A') (A') (A') (A") (A') (A') (A") (A') (A') (A")
                 (A') (A') (A') (A') (A") (A') (A") (A") (A") (A')
                 (A') (A") (A") (A') (A') (A') (A') (A') (A') (A")
                 (A') (A') (A') (A") (A') (A") (A') (A') (A') (A')
                 (A") (A') (A') (A') (A') (A') (A") (A") (A') (A')
                 (A") (A") (A') (A') (A') (A') (A') (A") (A') (A')
                 (A') (A") (A') (A') (A") (A') (A") (A") (A') (A')
                 (A") (A') (A') (A') (A") (A") (A") (A') (A") (A")
                 (A') (A") (A') (A') (A') (A') (A') (A') (A') (A')
                 (A') (A') (A') (A") (A') (A') (A') (A") (A") (A")
                 (A") (A') (A") (A') (A') (A') (A') (A') (A') (A')
                 (A') (A') (A') (A') (A') (A') (A') (A') (A') (A')
                 (A') (A') (A') (A') (A') (A') (A") (A") (A") (A")
                 (A") (A') (A') (A') (A') (A') (A') (A') (A') (A')
                 (A') (A') (A') (A') (A') (A')
 Initial guess <Sx>= 0.0000 <Sy>= 0.0000 <Sz>= 0.5000 <S**2>= 0.7536 S= 0.5018
 ExpMin= 3.60D-02 ExpMax= 1.06D+05 ExpMxC= 3.62D+03 IAcc=3 IRadAn=         5 AccDes= 0.00D+00
 Harris functional with IExCor= 1009 and IRadAn=       5 diagonalized for initial guess.
 HarFok:  IExCor= 1009 AccDes= 0.00D+00 IRadAn=         5 IDoV= 1 UseB2=F ITyADJ=14
 ICtDFT=  3500011 ScaDFX=  1.000000  1.000000  1.000000  1.000000
 FoFCou: FMM=F IPFlag=           0 FMFlag=      100000 FMFlg1=           0
         NFxFlg=           0 DoJE=T BraDBF=F KetDBF=T FulRan=T
         wScrn=  0.000000 ICntrl=       500 IOpCl=  0 I1Cent=   200000004 NGrid=           0
         NMat0=    1 NMatS0=      1 NMatT0=    0 NMatD0=    1 NMtDS0=    0 NMtDT0=    0
 Petite list used in FoFCou.
 Requested convergence on RMS density matrix=1.00D-08 within 128 cycles.
 Requested convergence on MAX density matrix=1.00D-06.
 Requested convergence on             energy=1.00D-06.
 No special actions if energy rises.
 SCF Done:  E(UM062X) =  -2530.19676455     A.U. after   19 cycles
            NFock= 19  Conv=0.30D-08     -V/T= 2.0022
 <Sx>= 0.0000 <Sy>= 0.0000 <Sz>= 0.5000 <S**2>= 0.7539 S= 0.5019
 <L.S>=  0.00000000000    
 Annihilation of the first spin contaminant:
 S**2 before annihilation     0.7539,   after     0.7500
 Calling FoFJK, ICntrl=      2127 FMM=F ISym2X=1 I1Cent= 0 IOpClX= 1 NMat=1 NMatS=1 NMatT=0.
 ***** Axes restored to original set *****
 -------------------------------------------------------------------
 Center     Atomic                   Forces (Hartrees/Bohr)
 Number     Number              X              Y              Z
 -------------------------------------------------------------------
      1        6           0.017684214   -0.001182490    0.000000000
      2        6           0.001219272   -0.044383836    0.000000000
      3        6          -0.017592624   -0.002151567   -0.000000000
      4        6          -0.007398367    0.007318785   -0.000000000
      5        6           0.000094080   -0.003424767   -0.000000000
      6        6           0.006985397    0.007713933    0.000000000
      7       17          -0.005738293   -0.004428586   -0.000000000
      8       17          -0.011881245    0.005070766   -0.000000000
      9       17          -0.000891347    0.032446816   -0.000000000
     10       17           0.011584937    0.005715401    0.000000000
     11       17           0.005972775   -0.004106869    0.000000000
     12        1          -0.000038799    0.001412414    0.000000000
 -------------------------------------------------------------------
 Cartesian Forces:  Max     0.044383836 RMS     0.010957532

 GradGradGradGradGradGradGradGradGradGradGradGradGradGradGradGradGradGrad
 Berny optimization.
 Using GEDIIS/GDIIS optimizer.
 FormGI is forming the generalized inverse of G from B-inverse, IUseBI=4.
 Internal  Forces:  Max     0.032459057 RMS     0.005537453
 Search for a local minimum.
 Step number   2 out of a maximum of   64
 All quantities printed in internal units (Hartrees-Bohrs-Radians)
 Mixed Optimization -- RFO/linear search
 Update second derivatives using D2CorX and points    1    2
 DE= -1.99D-02 DEPred=-1.59D-02 R= 1.25D+00
 TightC=F SS=  1.41D+00  RLast= 3.00D-01 DXNew= 5.0454D-01 9.0000D-01
 Trust test= 1.25D+00 RLast= 3.00D-01 DXMaxT set to 5.05D-01
 ITU=  1  0
 Use linear search instead of GDIIS.
     Eigenvalues ---    0.02037   0.02038   0.02040   0.02043   0.02045
     Eigenvalues ---    0.02055   0.02059   0.02074   0.02084   0.12494
     Eigenvalues ---    0.16000   0.23593   0.24921   0.25000   0.25000
     Eigenvalues ---    0.25000   0.25000   0.25000   0.25032   0.33839
     Eigenvalues ---    0.34594   0.34998   0.35751   0.36098   0.41356
     Eigenvalues ---    0.41405   0.44957   0.45029   0.45464   0.45922
 RFO step:  Lambda=-3.66518966D-03 EMin= 2.03682612D-02
 Quartic linear search produced a step of  0.82456.
 Iteration  1 RMS(Cart)=  0.02573346 RMS(Int)=  0.01442074
 Iteration  2 RMS(Cart)=  0.01383437 RMS(Int)=  0.00003103
 Iteration  3 RMS(Cart)=  0.00000001 RMS(Int)=  0.00003103
 ClnCor:  largest displacement from symmetrization is 1.23D-08 for atom     8.
 Variable       Old X    -DE/DX   Delta X   Delta X   Delta X     New X
                                 (Linear)    (Quad)   (Total)
    R1        2.60720  -0.00760  -0.03701   0.00279  -0.03418   2.57302
    R2        2.63488  -0.00224  -0.01552   0.00544  -0.01008   2.62480
    R3        3.31536   0.01287   0.08298  -0.01281   0.07017   3.38553
    R4        2.60720  -0.00760  -0.03701   0.00279  -0.03418   2.57302
    R5        3.81978   0.03246   0.18538   0.12055   0.30593   4.12571
    R6        2.63488  -0.00224  -0.01552   0.00544  -0.01008   2.62480
    R7        3.31536   0.01287   0.08298  -0.01281   0.07017   3.38553
    R8        2.62229  -0.00115  -0.01985   0.01510  -0.00479   2.61751
    R9        3.30998   0.00723   0.06315  -0.02152   0.04163   3.35161
   R10        2.62229  -0.00115  -0.01985   0.01510  -0.00479   2.61751
   R11        2.04923  -0.00141  -0.02230   0.01338  -0.00892   2.04032
   R12        3.30998   0.00723   0.06315  -0.02152   0.04163   3.35161
    A1        2.10045  -0.00045  -0.00489  -0.00058  -0.00542   2.09503
    A2        2.09851   0.00207   0.00492   0.01118   0.01607   2.11458
    A3        2.08423  -0.00162  -0.00003  -0.01060  -0.01065   2.07357
    A4        2.08953   0.00265   0.01532   0.00028   0.01569   2.10522
    A5        2.09683  -0.00132  -0.00766  -0.00014  -0.00785   2.08898
    A6        2.09683  -0.00132  -0.00766  -0.00014  -0.00785   2.08898
    A7        2.10045  -0.00045  -0.00489  -0.00058  -0.00542   2.09503
    A8        2.09851   0.00207   0.00492   0.01118   0.01607   2.11458
    A9        2.08423  -0.00162  -0.00003  -0.01060  -0.01065   2.07357
   A10        2.09585   0.00030  -0.00479   0.00921   0.00437   2.10022
   A11        2.13358   0.00070   0.00510  -0.00109   0.00404   2.13762
   A12        2.05375  -0.00100  -0.00031  -0.00812  -0.00841   2.04534
   A13        2.08422  -0.00235   0.00404  -0.01753  -0.01359   2.07063
   A14        2.09948   0.00117  -0.00202   0.00877   0.00680   2.10628
   A15        2.09948   0.00117  -0.00202   0.00877   0.00680   2.10628
   A16        2.09585   0.00030  -0.00479   0.00921   0.00437   2.10022
   A17        2.13358   0.00070   0.00510  -0.00109   0.00404   2.13762
   A18        2.05375  -0.00100  -0.00031  -0.00812  -0.00841   2.04534
    D1        0.00000  -0.00000   0.00000  -0.00000  -0.00000   0.00000
    D2        3.14159  -0.00000   0.00000   0.00000   0.00000   3.14159
    D3        3.14159  -0.00000   0.00000  -0.00000   0.00000   3.14159
    D4       -0.00000  -0.00000   0.00000  -0.00000   0.00000   0.00000
    D5        0.00000   0.00000   0.00000  -0.00000  -0.00000   0.00000
    D6        3.14159   0.00000   0.00000  -0.00000   0.00000   3.14159
    D7        3.14159   0.00000   0.00000   0.00000   0.00000   3.14159
    D8        0.00000   0.00000   0.00000   0.00000   0.00000   0.00000
    D9       -0.00000   0.00000   0.00000   0.00000   0.00000   0.00000
   D10        3.14159   0.00000   0.00000   0.00000   0.00000   3.14159
   D11        3.14159   0.00000   0.00000  -0.00000   0.00000   3.14159
   D12       -0.00000   0.00000   0.00000   0.00000   0.00000   0.00000
   D13       -0.00000   0.00000   0.00000   0.00000   0.00000   0.00000
   D14        3.14159  -0.00000   0.00000   0.00000   0.00000   3.14159
   D15        3.14159   0.00000   0.00000  -0.00000   0.00000   3.14159
   D16        0.00000  -0.00000   0.00000   0.00000  -0.00000   0.00000
   D17        0.00000  -0.00000   0.00000  -0.00000  -0.00000   0.00000
   D18        3.14159  -0.00000   0.00000   0.00000   0.00000   3.14159
   D19        3.14159  -0.00000   0.00000  -0.00000   0.00000   3.14159
   D20       -0.00000  -0.00000   0.00000  -0.00000   0.00000   0.00000
   D21       -0.00000   0.00000   0.00000   0.00000   0.00000   0.00000
   D22        3.14159   0.00000   0.00000   0.00000   0.00000   3.14159
   D23        3.14159   0.00000   0.00000  -0.00000   0.00000   3.14159
   D24        0.00000   0.00000   0.00000   0.00000  -0.00000   0.00000
         Item               Value     Threshold  Converged?
 Maximum Force            0.032459     0.000450     NO 
 RMS     Force            0.005537     0.000300     NO 
 Maximum Displacement     0.250517     0.001800     NO 
 RMS     Displacement     0.038156     0.001200     NO 
 Predicted change in Energy=-5.951411D-03
 GradGradGradGradGradGradGradGradGradGradGradGradGradGradGradGradGradGrad

                          Input orientation:                          
 ---------------------------------------------------------------------
 Center     Atomic      Atomic             Coordinates (Angstroms)
 Number     Number       Type             X           Y           Z
 ---------------------------------------------------------------------
      1          6           0       -3.172296    0.117128   -0.000000
      2          6           0       -2.008427    0.823751    0.000000
      3          6           0       -0.807520    0.182091    0.000000
      4          6           0       -0.760975   -1.206113    0.000000
      5          6           0       -1.932358   -1.945323    0.000000
      6          6           0       -3.142557   -1.271537   -0.000000
      7         17           0       -4.618051   -2.255691   -0.000000
      8         17           0       -4.760256    0.946597   -0.000000
      9         17           0       -2.068380    3.006160    0.000000
     10         17           0        0.732507    1.097489    0.000000
     11         17           0        0.766324   -2.107777    0.000000
     12          1           0       -1.902709   -3.024604    0.000000
 ---------------------------------------------------------------------
                    Distance matrix (angstroms):
                    1          2          3          4          5
     1  C    0.000000
     2  C    1.361582   0.000000
     3  C    2.365668   1.361582   0.000000
     4  C    2.750533   2.382537   1.388984   0.000000
     5  C    2.406481   2.770119   2.406481   1.385124   0.000000
     6  C    1.388984   2.382537   2.750533   2.382480   1.385124
     7  Cl   2.778575   4.036471   4.523597   3.997330   2.703567
     8  Cl   1.791546   2.754570   4.025990   4.541851   4.044776
     9  Cl   3.092755   2.183232   3.092755   4.410505   4.953351
    10  Cl   4.025990   2.754570   1.791546   2.745373   4.044776
    11  Cl   4.523597   4.036471   2.778575   1.773596   2.703567
    12  H    3.388559   3.849807   3.388559   2.147200   1.079688
                    6          7          8          9         10
     6  C    0.000000
     7  Cl   1.773596   0.000000
     8  Cl   2.745373   3.205444   0.000000
     9  Cl   4.410505   5.847042   3.389395   0.000000
    10  Cl   4.541851   6.314451   5.494836   3.389395   0.000000
    11  Cl   3.997330   5.386407   6.314451   5.847042   3.205444
    12  H    2.147200   2.822111   4.892445   6.033039   4.892445
                   11         12
    11  Cl   0.000000
    12  H    2.822111   0.000000
 Stoichiometry    C6HCl5(1-,2)
 Framework group  CS[SG(C6HCl5)]
 Deg. of freedom    21
 Full point group                 CS      NOp   2
 Largest Abelian subgroup         CS      NOp   2
 Largest concise Abelian subgroup C1      NOp   1
                         Standard orientation:                         
 ---------------------------------------------------------------------
 Center     Atomic      Atomic             Coordinates (Angstroms)
 Number     Number       Type             X           Y           Z
 ---------------------------------------------------------------------
      1          6           0        0.241089   -1.182834   -0.000000
      2          6           0        0.915485   -0.000000   -0.000000
      3          6           0        0.241089    1.182834    0.000000
      4          6           0       -1.147870    1.191240    0.000000
      5          6           0       -1.854634   -0.000000    0.000000
      6          6           0       -1.147870   -1.191240   -0.000000
      7         17           0       -2.091134   -2.693203   -0.000000
      8         17           0        1.113851   -2.747418   -0.000000
      9         17           0        3.098717   -0.000000   -0.000000
     10         17           0        1.113851    2.747418    0.000000
     11         17           0       -2.091134    2.693203    0.000000
     12          1           0       -2.934322    0.000000    0.000000
 ---------------------------------------------------------------------
 Rotational constants (GHZ):           0.6153167           0.4582569           0.2626491
 Standard basis: 6-311++G(d,p) (5D, 7F)
 There are   223 symmetry adapted cartesian basis functions of A'  symmetry.
 There are    77 symmetry adapted cartesian basis functions of A"  symmetry.
 There are   212 symmetry adapted basis functions of A'  symmetry.
 There are    77 symmetry adapted basis functions of A"  symmetry.
   289 basis functions,   490 primitive gaussians,   300 cartesian basis functions
    62 alpha electrons       61 beta electrons
       nuclear repulsion energy      1042.6019260785 Hartrees.
 NAtoms=   12 NActive=   12 NUniq=   12 SFac= 1.00D+00 NAtFMM=   60 NAOKFM=F Big=F
 Integral buffers will be    131072 words long.
 Raffenetti 2 integral format.
 Two-electron integral symmetry is turned on.
 One-electron integrals computed using PRISM.
 NBasis=   289 RedAO= T EigKep=  1.83D-06  NBF=   212    77
 NBsUse=   287 1.00D-06 EigRej=  4.88D-07 NBFU=   210    77
 Initial guess from the checkpoint file:  "frequency_chks/12345ClBzAnionRadical_Freq.chk"
 B after Tr=     0.000000    0.000000   -0.000000
         Rot=    0.707107   -0.000000   -0.000000   -0.707107 Ang= -90.00 deg.
 Initial guess orbital symmetries:
 Alpha Orbitals:
       Occupied  (A') (A') (A') (A') (A') (A') (A') (A') (A') (A')
                 (A') (A') (A') (A') (A') (A') (A') (A') (A") (A")
                 (A') (A') (A') (A') (A") (A") (A') (A') (A') (A")
                 (A') (A') (A') (A') (A') (A') (A') (A') (A') (A')
                 (A') (A') (A') (A') (A") (A') (A') (A') (A") (A')
                 (A") (A") (A') (A') (A") (A') (A') (A") (A') (A")
                 (A") (A')
       Virtual   (A') (A') (A") (A") (A') (A') (A') (A") (A') (A')
                 (A") (A') (A') (A") (A') (A') (A") (A') (A") (A')
                 (A') (A') (A") (A') (A') (A") (A') (A') (A") (A')
                 (A') (A") (A") (A') (A') (A") (A') (A') (A') (A')
                 (A") (A') (A') (A') (A') (A') (A') (A') (A') (A')
                 (A') (A') (A') (A') (A') (A') (A') (A") (A") (A')
                 (A') (A') (A") (A') (A') (A") (A') (A') (A') (A")
                 (A") (A') (A') (A") (A") (A') (A") (A") (A') (A')
                 (A') (A") (A') (A') (A') (A') (A") (A') (A") (A')
                 (A') (A') (A') (A") (A') (A") (A') (A") (A") (A')
                 (A') (A") (A") (A') (A') (A') (A') (A') (A') (A")
                 (A') (A') (A") (A') (A') (A") (A') (A') (A') (A")
                 (A') (A') (A') (A') (A") (A') (A") (A') (A") (A')
                 (A") (A') (A') (A') (A') (A') (A") (A') (A') (A')
                 (A") (A') (A') (A") (A') (A") (A") (A') (A') (A")
                 (A') (A') (A') (A") (A") (A') (A") (A") (A') (A")
                 (A") (A') (A') (A') (A') (A') (A') (A') (A') (A')
                 (A') (A') (A") (A') (A') (A') (A") (A") (A") (A")
                 (A') (A") (A') (A') (A') (A') (A') (A') (A') (A')
                 (A') (A') (A') (A') (A') (A') (A') (A') (A') (A')
                 (A') (A') (A') (A') (A') (A") (A") (A") (A") (A")
                 (A') (A') (A') (A') (A') (A') (A') (A') (A') (A')
                 (A') (A') (A') (A') (A')
 Beta  Orbitals:
       Occupied  (A') (A') (A') (A') (A') (A') (A') (A') (A') (A')
                 (A') (A') (A') (A') (A') (A') (A') (A') (A") (A")
                 (A') (A') (A') (A') (A") (A") (A') (A') (A') (A")
                 (A') (A') (A') (A') (A') (A') (A') (A') (A') (A')
                 (A') (A') (A') (A') (A") (A') (A') (A") (A') (A")
                 (A') (A") (A') (A') (A") (A') (A') (A") (A') (A")
                 (A")
[...]
    R6        2.63736  -0.00002   0.00000  -0.00006  -0.00006   2.63730
    R7        3.31642  -0.00002   0.00000  -0.00006  -0.00006   3.31637
    R8        2.62271   0.00000   0.00000   0.00001   0.00001   2.62272
    R9        3.31397   0.00010   0.00000   0.00058   0.00058   3.31456
   R10        2.62271   0.00000   0.00000   0.00001   0.00001   2.62272
   R11        2.04264  -0.00003   0.00000  -0.00010  -0.00010   2.04254
   R12        3.31397   0.00010   0.00000   0.00058   0.00058   3.31456
    A1        2.09097  -0.00003   0.00000  -0.00027  -0.00027   2.09069
    A2        2.10527   0.00006   0.00000   0.00041   0.00041   2.10567
    A3        2.08695  -0.00004   0.00000  -0.00013  -0.00013   2.08682
    A4        2.10685   0.00004   0.00000   0.00034   0.00034   2.10720
    A5        2.08817  -0.00002   0.00000  -0.00017  -0.00017   2.08799
    A6        2.08817  -0.00002   0.00000  -0.00017  -0.00017   2.08799
    A7        2.09097  -0.00003   0.00000  -0.00027  -0.00027   2.09069
    A8        2.10527   0.00006   0.00000   0.00041   0.00041   2.10567
    A9        2.08695  -0.00004   0.00000  -0.00013  -0.00013   2.08682
   A10        2.09814   0.00003   0.00000   0.00023   0.00023   2.09837
   A11        2.13482   0.00001   0.00000   0.00005   0.00005   2.13487
   A12        2.05023  -0.00003   0.00000  -0.00028  -0.00028   2.04995
   A13        2.08131  -0.00004   0.00000  -0.00027  -0.00027   2.08104
   A14        2.10094   0.00002   0.00000   0.00013   0.00013   2.10107
   A15        2.10094   0.00002   0.00000   0.00013   0.00013   2.10107
   A16        2.09814   0.00003   0.00000   0.00023   0.00023   2.09837
   A17        2.13482   0.00001   0.00000   0.00005   0.00005   2.13487
   A18        2.05023  -0.00003   0.00000  -0.00028  -0.00028   2.04995
    D1        0.00000  -0.00000   0.00000  -0.00000   0.00000   0.00000
    D2        3.14159  -0.00000   0.00000  -0.00000   0.00000   3.14159
    D3        3.14159   0.00000   0.00000  -0.00000   0.00000   3.14159
    D4        0.00000  -0.00000   0.00000  -0.00000   0.00000   0.00000
    D5        0.00000  -0.00000   0.00000   0.00000   0.00000   0.00000
    D6        3.14159   0.00000   0.00000   0.00000   0.00000   3.14159
    D7        3.14159  -0.00000   0.00000   0.00000   0.00000   3.14159
    D8        0.00000  -0.00000   0.00000   0.00000   0.00000   0.00000
    D9        0.00000   0.00000   0.00000  -0.00000   0.00000   0.00000
   D10        3.14159  -0.00000   0.00000  -0.00000   0.00000   3.14159
   D11        3.14159   0.00000   0.00000   0.00000   0.00000   3.14159
   D12        0.00000   0.00000   0.00000   0.00000   0.00000   0.00000
   D13        0.00000  -0.00000   0.00000   0.00000   0.00000   0.00000
   D14        3.14159  -0.00000   0.00000   0.00000   0.00000   3.14159
   D15        3.14159   0.00000   0.00000   0.00000   0.00000   3.14159
   D16        0.00000   0.00000   0.00000   0.00000   0.00000   0.00000
   D17        0.00000   0.00000   0.00000  -0.00000   0.00000   0.00000
   D18        3.14159  -0.00000   0.00000  -0.00000   0.00000   3.14159
   D19        3.14159  -0.00000   0.00000  -0.00000   0.00000   3.14159
   D20        0.00000  -0.00000   0.00000  -0.00000   0.00000   0.00000
   D21        0.00000   0.00000   0.00000   0.00000   0.00000   0.00000
   D22        3.14159  -0.00000   0.00000   0.00000   0.00000   3.14159
   D23        3.14159   0.00000   0.00000   0.00000   0.00000   3.14159
   D24        0.00000  -0.00000   0.00000   0.00000   0.00000   0.00000
         Item               Value     Threshold  Converged?
 Maximum Force            0.000097     0.000450     YES
 RMS     Force            0.000030     0.000300     YES
 Maximum Displacement     0.001665     0.001800     YES
 RMS     Displacement     0.000290     0.001200     YES
 Predicted change in Energy=-1.852830D-07
 Optimization completed.
    -- Stationary point found.
                           ----------------------------
                           !   Optimized Parameters   !
                           ! (Angstroms and Degrees)  !
 --------------------------                            --------------------------
 ! Name  Definition              Value          Derivative Info.                !
 --------------------------------------------------------------------------------
 ! R1    R(1,2)                  1.3732         -DE/DX =    0.0                 !
 ! R2    R(1,6)                  1.3956         -DE/DX =    0.0                 !
 ! R3    R(1,8)                  1.755          -DE/DX =    0.0                 !
 ! R4    R(2,3)                  1.3732         -DE/DX =    0.0                 !
 ! R5    R(2,9)                  2.3851         -DE/DX =   -0.0001              !
 ! R6    R(3,4)                  1.3956         -DE/DX =    0.0                 !
 ! R7    R(3,10)                 1.755          -DE/DX =    0.0                 !
 ! R8    R(4,5)                  1.3879         -DE/DX =    0.0                 !
 ! R9    R(4,11)                 1.7537         -DE/DX =    0.0001              !
 ! R10   R(5,6)                  1.3879         -DE/DX =    0.0                 !
 ! R11   R(5,12)                 1.0809         -DE/DX =    0.0                 !
 ! R12   R(6,7)                  1.7537         -DE/DX =    0.0001              !
 ! A1    A(2,1,6)              119.8035         -DE/DX =    0.0                 !
 ! A2    A(2,1,8)              120.6228         -DE/DX =    0.0001              !
 ! A3    A(6,1,8)              119.5736         -DE/DX =    0.0                 !
 ! A4    A(1,2,3)              120.7139         -DE/DX =    0.0                 !
 ! A5    A(1,2,9)              119.6431         -DE/DX =    0.0                 !
 ! A6    A(3,2,9)              119.6431         -DE/DX =    0.0                 !
 ! A7    A(2,3,4)              119.8035         -DE/DX =    0.0                 !
 ! A8    A(2,3,10)             120.6228         -DE/DX =    0.0001              !
 ! A9    A(4,3,10)             119.5736         -DE/DX =    0.0                 !
 ! A10   A(3,4,5)              120.2143         -DE/DX =    0.0                 !
 ! A11   A(3,4,11)             122.3162         -DE/DX =    0.0                 !
 ! A12   A(5,4,11)             117.4695         -DE/DX =    0.0                 !
 ! A13   A(4,5,6)              119.2504         -DE/DX =    0.0                 !
 ! A14   A(4,5,12)             120.3748         -DE/DX =    0.0                 !
 ! A15   A(6,5,12)             120.3748         -DE/DX =    0.0                 !
 ! A16   A(1,6,5)              120.2143         -DE/DX =    0.0                 !
 ! A17   A(1,6,7)              122.3162         -DE/DX =    0.0                 !
 ! A18   A(5,6,7)              117.4695         -DE/DX =    0.0                 !
 ! D1    D(6,1,2,3)              0.0            -DE/DX =    0.0                 !
 ! D2    D(6,1,2,9)            180.0            -DE/DX =    0.0                 !
 ! D3    D(8,1,2,3)            180.0            -DE/DX =    0.0                 !
 ! D4    D(8,1,2,9)              0.0            -DE/DX =    0.0                 !
 ! D5    D(2,1,6,5)              0.0            -DE/DX =    0.0                 !
 ! D6    D(2,1,6,7)            180.0            -DE/DX =    0.0                 !
 ! D7    D(8,1,6,5)            180.0            -DE/DX =    0.0                 !
 ! D8    D(8,1,6,7)              0.0            -DE/DX =    0.0                 !
 ! D9    D(1,2,3,4)              0.0            -DE/DX =    0.0                 !
 ! D10   D(1,2,3,10)           180.0            -DE/DX =    0.0                 !
 ! D11   D(9,2,3,4)            180.0            -DE/DX =    0.0                 !
 ! D12   D(9,2,3,10)             0.0            -DE/DX =    0.0                 !
 ! D13   D(2,3,4,5)              0.0            -DE/DX =    0.0                 !
 ! D14   D(2,3,4,11)           180.0            -DE/DX =    0.0                 !
 ! D15   D(10,3,4,5)           180.0            -DE/DX =    0.0                 !
 ! D16   D(10,3,4,11)            0.0            -DE/DX =    0.0                 !
 ! D17   D(3,4,5,6)              0.0            -DE/DX =    0.0                 !
 ! D18   D(3,4,5,12)           180.0            -DE/DX =    0.0                 !
 ! D19   D(11,4,5,6)           180.0            -DE/DX =    0.0                 !
 ! D20   D(11,4,5,12)            0.0            -DE/DX =    0.0                 !
 ! D21   D(4,5,6,1)              0.0            -DE/DX =    0.0                 !
 ! D22   D(4,5,6,7)            180.0            -DE/DX =    0.0                 !
 ! D23   D(12,5,6,1)           180.0            -DE/DX =    0.0                 !
 ! D24   D(12,5,6,7)             0.0            -DE/DX =    0.0                 !
 --------------------------------------------------------------------------------
 GradGradGradGradGradGradGradGradGradGradGradGradGradGradGradGradGradGrad


 ----------------------------------------------------------------------

 Electric dipole moment (input orientation):
 (Debye = 10**-18 statcoulomb cm , SI units = C m)
                  (au)            (Debye)         (10**-30 SI)
   Tot        0.323555D+01      0.822395D+01      0.274321D+02
   x          0.888503D-01      0.225835D+00      0.753305D+00
   y         -0.323433D+01     -0.822085D+01     -0.274218D+02
   z          0.000000D+00      0.000000D+00      0.000000D+00

 Dipole polarizability, Alpha (input orientation).
 (esu units = cm**3 , SI units = C**2 m**2 J**-1)
 Alpha(0;0):
               (au)            (10**-24 esu)      (10**-40 SI)
   iso        0.157464D+03      0.233338D+02      0.259624D+02
   aniso      0.119017D+03      0.176365D+02      0.196232D+02
   xx         0.188918D+03      0.279948D+02      0.311484D+02
   yx        -0.437165D+00     -0.647812D-01     -0.720788D-01
   yy         0.204820D+03      0.303512D+02      0.337703D+02
   zx         0.000000D+00      0.000000D+00      0.000000D+00
   zy         0.000000D+00      0.000000D+00      0.000000D+00
   zz         0.786544D+02      0.116554D+02      0.129684D+02

 ----------------------------------------------------------------------

 Dipole orientation:
     6         -6.00425327         -0.16494291         -0.35512783
     6         -3.74978470         -0.10301038         -1.63856989
     6         -1.49531612         -0.04107785         -0.35512785
     6         -1.48793288         -0.04087502          2.28222084
     6         -3.74978468         -0.10301038          3.60840366
     6         -6.01163651         -0.16514574          2.28222085
    17         -8.81620105         -0.24218996          4.04599228
    17         -8.88293971         -0.24402334         -1.99999366
    17         -3.74978470         -0.10301038         -6.14567617
    17          1.38337031          0.03800258         -1.99999369
    17          1.31663168          0.03616920          4.04599224
     1         -3.74978469         -0.10301038          5.65104226

 Electric dipole moment (dipole orientation):
 (Debye = 10**-18 statcoulomb cm , SI units = C m)
                  (au)            (Debye)         (10**-30 SI)
   Tot        0.323555D+01      0.822395D+01      0.274321D+02
   x          0.000000D+00      0.000000D+00      0.000000D+00
   y          0.000000D+00      0.000000D+00      0.000000D+00
   z          0.323555D+01      0.822395D+01      0.274321D+02

 Dipole polarizability, Alpha (dipole orientation).
 (esu units = cm**3 , SI units = C**2 m**2 J**-1)
 Alpha(0;0):
               (au)            (10**-24 esu)      (10**-40 SI)
   iso        0.157464D+03      0.233338D+02      0.259624D+02
   aniso      0.119017D+03      0.176365D+02      0.196232D+02
   xx         0.188823D+03      0.279807D+02      0.311328D+02
   yx         0.302645D+01      0.448474D+00      0.498994D+00
   yy         0.787375D+02      0.116677D+02      0.129821D+02
   zx         0.000000D+00      0.000000D+00      0.000000D+00
   zy         0.000000D+00      0.000000D+00      0.000000D+00
   zz         0.204832D+03      0.303530D+02      0.337723D+02

 ----------------------------------------------------------------------
 1\1\GINC-SH04-01N17\Freq\UM062X\6-311++G(d,p)\C6H1Cl5(1-,2)\JLAPIER\09
 -Dec-2025\0\\#N Geom=AllCheck Guess=TCheck SCRF=Check GenChk UM062X/6-
 311++G(d,p) Freq\\5-Chloro-Benzene Anion Radical (12345)\\-1,2\C,-3.18
 24745596,0.1005706556,0.\C,-2.0081115721,0.8122561078,0.\C,-0.79644777
 25,0.1661172352,0.\C,-0.7542159613,-1.2288739452,0.\C,-1.9318648957,-1
 .9632756356,0.\C,-3.1480568302,-1.2946351837,0.\Cl,-4.606538137,-2.268
 4008964,0.\Cl,-4.7297122727,0.9288203552,0.\Cl,-2.0736068165,3.1964145
 951,0.\Cl,0.70298503,1.0780620648,0.\Cl,0.755526023,-2.1210995525,0.\H
 ,-1.9021821944,-3.0437857992,0.\\Version=ES64L-G16RevB.01\State=2-A'\H
 F=-2530.2076831\S2=0.75749\S2-1=0.\S2A=0.750042\RMSD=1.452e-09\RMSF=5.
 458e-05\ZeroPoint=0.0498828\Thermal=0.0603582\Dipole=0.0888503,-3.2343
 31,0.\DipoleDeriv=1.200123,-0.077082,0.,-0.4260855,-0.0848082,0.,0.,0.
 ,0.0041632,-0.9170147,-0.0412862,0.,-0.0412863,0.584756,0.,0.,0.,-0.07
 86184,1.1686676,0.1460025,0.,0.495006,-0.0533527,0.,0.,0.,0.0041632,0.
 8238234,-0.6556665,0.,-0.578645,0.5572972,0.,0.,0.,-0.0170949,-0.40611
 5,-0.0046854,0.,-0.0046855,-0.2356838,0.,0.,0.,-0.1297848,0.7553578,0.
 6665565,0.,0.5895351,0.6257627,0.,0.,0.,-0.0170949,-0.713905,-0.573386
 3,0.,-0.4892096,-0.5627179,0.,0.,0.,-0.0969678,-0.8963751,0.0704868,0.
 ,0.4144583,-0.1082998,0.,0.,0.,-0.1007271,-0.4357746,0.0172238,0.,0.01
 72238,-1.0622834,0.,0.,0.,-0.5150511,-0.8674161,-0.1122258,0.,-0.45619
 72,-0.1372588,0.,0.,0.,-0.1007271,-0.7716985,0.5618959,0.,0.4777191,-0
 .5049244,0.,0.,0.,-0.0969678,0.0603271,0.0021667,0.,0.0021667,-0.01848
 69,0.,0.,0.,0.1447074\Polar=188.9184211,-0.4371651,204.8201119,0.,0.,7
 8.654361\Quadrupole=0.6562611,-12.8690674,12.2128064,0.3718351,0.,0.\P
 G=CS [SG(C6H1Cl5)]\NImag=1\\0.51101908,0.05285040,0.57366250,0.,0.,0.1
 1237125,-0.26276945,-0.10673795,0.,0.66521615,-0.13054463,-0.14274376,
 0.,0.00893703,0.34013561,0.,0.,-0.04805914,0.,0.,0.06835353,-0.0562150
 4,-0.01851537,0.,-0.27541499,0.12324990,0.,0.51700218,0.01231864,0.056
 48669,0.,0.09944322,-0.13009823,0.,-0.05596579,0.56767940,0.,0.,-0.004
 89021,0.,0.,-0.04805914,0.,0.,0.11237125,-0.01906922,-0.03590339,0.,0.
 02948785,0.02056992,0.,-0.08862632,0.04091166,0.,0.54487138,-0.0281372
 5,-0.06596423,0.,0.09163098,-0.01825418,0.,-0.03887511,-0.30877021,0.,
 0.07416499,0.59995818,0.,0.,0.00141177,0.,0.,0.01041906,0.,0.,-0.05798
 107,0.,0.,0.10982854,0.03384680,0.08638927,0.,-0.07738863,-0.00208455,
 0.,0.03950193,-0.08280566,0.,-0.26636119,-0.07192040,0.,0.67842947,0.0
 2004571,-0.02567410,0.,-0.00208455,-0.00156412,0.,-0.01646210,-0.03132
 924,0.,-0.14845757,-0.18295915,0.,-0.00238210,0.76507772,0.,0.,0.00502
 311,0.,0.,0.00076580,0.,0.,0.00502311,0.,0.,-0.05464770,0.,0.,0.115858
 71,-0.08917821,-0.02883772,0.,0.03549456,-0.01761463,0.,-0.02272113,0.
 03828104,0.,-0.06379190,-0.03913629,0.,-0.27819043,0.14322141,0.,0.553
 16853,0.05094905,-0.30821832,0.,-0.08867568,-0.02426089,0.,0.03051491,
 -0.06231232,0.,0.03176086,0.07034695,0.,0.06668424,-0.17112989,0.,-0.0
 7673764,0.59166102,0.,0.,-0.05798107,0.,0.,0.01041906,0.,0.,0.00141177
 ,0.,0.,0.00035264,0.,0.,-0.05464770,0.,0.,0.10982854,-0.01614016,-0.00
 608906,0.,-0.00030763,-0.00203616,0.,0.00139680,0.00060908,0.,-0.00001
 676,0.00307380,0.,-0.03883386,-0.02581765,0.,-0.11727476,-0.05033121,0
 .,0.17111156,-0.03190078,-0.01607005,0.,0.00059066,-0.00423999,0.,0.00
 165910,0.00180911,0.,0.00095936,-0.00137340,0.,0.00004087,0.00289064,0
 .,-0.04925957,-0.06956526,0.,0.08176230,0.09588259,0.,0.,0.00221821,0.
 ,0.,0.00335590,0.,0.,-0.00002278,0.,0.,0.00565569,0.,0.,0.00301994,0.,
 0.,-0.01984202,0.,0.,0.00933957,-0.09631549,0.05877154,0.,-0.05587850,
 0.00619260,0.,0.00031024,0.00186971,0.,0.00012846,0.00050107,0.,0.0011
 8270,0.00135122,0.,-0.01986099,0.01301825,0.,0.00223727,-0.00319511,0.
 ,0.17122572,0.03759141,-0.06648523,0.,0.00486127,0.01027601,0.,-0.0031
 9040,-0.00195181,0.,0.00011918,0.00031312,0.,-0.00270083,-0.00369960,0
 .,0.03228253,-0.02018083,0.,0.00403621,-0.00720199,0.,-0.07143164,0.08
 700509,0.,0.,-0.02030789,0.,0.,-0.00054136,0.,0.,0.00627144,0.,0.,-0.0
 0046881,0.,0.,0.00380676,0.,0.,0.00326527,0.,0.,-0.00037546,0.,0.,0.00
 854597,-0.00333059,-0.00114466,0.,-0.00175094,0.00091817,0.,-0.0026787
 1,0.00128599,0.,-0.00014820,-0.00026431,0.,0.00032865,0.00002878,0.,-0
 .00027764,-0.00002832,0.,0.00056442,0.00017991,0.,-0.00058423,-0.00379
 552,0.,0.00867593,0.01314179,-0.00524920,0.,0.00091818,-0.03514909,0.,
 -0.01300046,-0.00590107,0.,-0.00238249,0.00504461,0.,0.00002878,-0.000
 71811,0.,0.00208985,0.00517405,0.,-0.00334472,-0.00275650,0.,-0.008781
 94,0.00226080,0.,-0.00078545,0.03724615,0.,0.,-0.00069500,0.,0.,0.0004
 8252,0.,0.,-0.00069500,0.,0.,0.00022378,0.,0.,-0.00018190,0.,0.,0.0002
 2378,0.,0.,0.00015950,0.,0.,0.00048690,0.,0.,-0.00037179,0.00023102,-0
 .00174970,0.,-0.05507315,-0.00978573,0.,-0.09094317,-0.06011632,0.,-0.
 01737866,-0.01286417,0.,0.00109401,-0.00108764,0.,0.00016302,-0.000509
 32,0.,-0.00172938,-0.00165384,0.,0.00007428,-0.00002996,0.,-0.00126513
 ,0.00858807,0.,0.16314043,0.00331042,-0.00187260,0.,-0.00845440,0.0094
 7066,0.,-0.03893619,-0.07185755,0.,-0.03212845,-0.02266315,0.,0.002964
 40,-0.00361090,0.,-0.00012744,0.00027857,0.,-0.00105630,-0.00072127,0.
 ,0.00001126,0.00041443,0.,0.00360165,0.00294169,0.,0.07561783,0.095090
 39,0.,0.,0.00627144,0.,0.,-0.00054136,0.,0.,-0.02030789,0.,0.,0.003265
 27,0.,0.,0.00380676,0.,0.,-0.00046881,0.,0.,-0.00109716,0.,0.,0.000013
 42,0.,0.,0.00048690,0.,0.,0.00854597,0.00152237,-0.00062484,0.,-0.0003
 9872,0.00224737,0.,-0.01822246,0.00597072,0.,-0.12259031,0.04741571,0.
 ,-0.04012112,0.02345271,0.,0.00020024,-0.00298728,0.,-0.00109856,-0.00
 007294,0.,-0.00187490,0.00099287,0.,0.00038092,0.00351723,0.,0.0022549
 3,-0.00351623,0.,0.17984887,-0.00167486,0.00168353,0.,-0.00037945,-0.0
 0414890,0.,0.03178243,-0.01398774,0.,0.04634407,-0.06424971,0.,-0.0024
 0582,0.00417790,0.,-0.00087284,-0.00159040,0.,-0.00001214,0.00044883,0
 .,0.00159041,-0.00057574,0.,-0.00000741,-0.00257300,0.,0.00371508,-0.0
 0721965,0.,-0.07714554,0.08714528,0.,0.,-0.00002278,0.,0.,0.00335590,0
 .,0.,0.00221821,0.,0.,-0.01984202,0.,0.,0.00301994,0.,0.,0.00565569,0.
 ,0.,0.00030754,0.,0.,-0.00109716,0.,0.,0.00015950,0.,0.,-0.00037546,0.
 ,0.,0.00933957,-0.00360113,0.00159148,0.,-0.00121653,-0.00004930,0.,-0
 .00338932,-0.00180229,0.,0.00349486,-0.02558903,0.,-0.05348834,0.00819
 179,0.,0.00226871,0.02634216,0.,0.00009106,0.00089004,0.,-0.00064457,0
 .00126489,0.,0.00008551,0.00001116,0.,-0.00056818,-0.00128655,0.,0.000
 09874,-0.00093394,0.,0.05686918,0.00205010,0.00044478,0.,-0.00004930,0
 .00057689,0.,-0.00226091,0.00023296,0.,0.00404184,-0.01142883,0.,0.008
 19180,-0.35146114,0.,-0.00328870,-0.01020268,0.,-0.00079414,0.00089729
 ,0.,0.00010263,-0.00017425,0.,0.00001116,-0.00032033,0.,-0.00012429,-0
 .00025063,0.,0.00075024,0.00088960,0.,-0.00863041,0.37079633,0.,0.,0.0
 0466031,0.,0.,0.00004925,0.,0.,0.00466031,0.,0.,0.00178287,0.,0.,-0.03
 084683,0.,0.,0.00178287,0.,0.,-0.00271892,0.,0.,0.00040093,0.,0.,-0.00
 027917,0.,0.,0.00040093,0.,0.,-0.00271892,0.,0.,0.02282637\\0.00000512
 ,-0.00008768,0.,-0.00000225,0.00008189,0.,-0.00000030,-0.00008782,0.,0
 .00010032,-0.00011782,0.,-0.00000295,0.00010746,0.,-0.00009371,-0.0001
 2314,0.,0.00007312,0.00006469,0.,-0.00000310,0.00003636,0.,-0.00000155
 ,0.00005635,0.,0.00000110,0.00003647,0.,-0.00007656,0.00006057,0.,0.00
 000075,-0.00002732,0.\\\@


 IF GOD HAD MEANT MAN TO SEE THE SUN RISE, HE
 WOULD HAVE SCHEDULED IT FOR A LATER HOUR.
 Job cpu time:       0 days  0 hours 43 minutes 13.2 seconds.
 Elapsed time:       0 days  0 hours 10 minutes 57.0 seconds.
 File lengths (MBytes):  RWF=    284 Int=      0 D2E=      0 Chk=     34 Scr=      1
 Normal termination of Gaussian 16 at Tue Dec  9 13:32:40 2025.
