 Entering Gaussian System, Link 0=g16
 Initial command:
 /share/software/user/restricted/gaussian/g16.B01/l1.exe "/home/users/jlapier/Chloroaromatics/Gau-17097.inp" -scrdir="/home/users/jlapier/Chloroaromatics/"
 Entering Link 1 = /share/software/user/restricted/gaussian/g16.B01/l1.exe PID=     17098.
  
 Copyright (c) 1988-2017, Gaussian, Inc.  All Rights Reserved.
  
 This is part of the Gaussian(R) 16 program.  It is based on
 the Gaussian(R) 09 system (copyright 2009, Gaussian, Inc.),
 the Gaussian(R) 03 system (copyright 2003, Gaussian, Inc.),
 the Gaussian(R) 98 system (copyright 1998, Gaussian, Inc.),
 the Gaussian(R) 94 system (copyright 1995, Gaussian, Inc.),
 the Gaussian 92(TM) system (copyright 1992, Gaussian, Inc.),
 the Gaussian 90(TM) system (copyright 1990, Gaussian, Inc.),
 the Gaussian 88(TM) system (copyright 1988, Gaussian, Inc.),
 the Gaussian 86(TM) system (copyright 1986, Carnegie Mellon
 University), and the Gaussian 82(TM) system (copyright 1983,
 Carnegie Mellon University). Gaussian is a federally registered
 trademark of Gaussian, Inc.
  
 This software contains proprietary and confidential information,
 including trade secrets, belonging to Gaussian, Inc.
  
 This software is provided under written license and may be
 used, copied, transmitted, or stored only in accord with that
 written license.
  
 The following legend is applicable only to US Government
 contracts under FAR:
  
                    RESTRICTED RIGHTS LEGEND
  
 Use, reproduction and disclosure by the US Government is
 subject to restrictions as set forth in subparagraphs (a)
 and (c) of the Commercial Computer Software - Restricted
 Rights clause in FAR 52.227-19.
  
 Gaussian, Inc.
 340 Quinnipiac St., Bldg. 40, Wallingford CT 06492
  
  
 ---------------------------------------------------------------
 Warning -- This program may not be used in any manner that
 competes with the business of Gaussian, Inc. or will provide
 assistance to any competitor of Gaussian, Inc.  The licensee
 of this program is prohibited from giving any competitor of
 Gaussian, Inc. access to this program.  By using this program,
 the user acknowledges that Gaussian, Inc. is engaged in the
 business of creating and licensing software in the field of
 computational chemistry and represents and warrants to the
 licensee that it is not a competitor of Gaussian, Inc. and that
 it will not use this program in any manner prohibited above.
 ---------------------------------------------------------------
  

 Cite this work as:
 Gaussian 16, Revision B.01,
 M. J. Frisch, G. W. Trucks, H. B. Schlegel, G. E. Scuseria, 
 M. A. Robb, J. R. Cheeseman, G. Scalmani, V. Barone, 
 G. A. Petersson, H. Nakatsuji, X. Li, M. Caricato, A. V. Marenich, 
 J. Bloino, B. G. Janesko, R. Gomperts, B. Mennucci, H. P. Hratchian, 
 J. V. Ortiz, A. F. Izmaylov, J. L. Sonnenberg, D. Williams-Young, 
 F. Ding, F. Lipparini, F. Egidi, J. Goings, B. Peng, A. Petrone, 
 T. Henderson, D. Ranasinghe, V. G. Zakrzewski, J. Gao, N. Rega, 
 G. Zheng, W. Liang, M. Hada, M. Ehara, K. Toyota, R. Fukuda, 
 J. Hasegawa, M. Ishida, T. Nakajima, Y. Honda, O. Kitao, H. Nakai, 
 T. Vreven, K. Throssell, J. A. Montgomery, Jr., J. E. Peralta, 
 F. Ogliaro, M. J. Bearpark, J. J. Heyd, E. N. Brothers, K. N. Kudin, 
 V. N. Staroverov, T. A. Keith, R. Kobayashi, J. Normand, 
 K. Raghavachari, A. P. Rendell, J. C. Burant, S. S. Iyengar, 
 J. Tomasi, M. Cossi, J. M. Millam, M. Klene, C. Adamo, R. Cammi, 
 J. W. Ochterski, R. L. Martin, K. Morokuma, O. Farkas, 
 J. B. Foresman, and D. J. Fox, Gaussian, Inc., Wallingford CT, 2016.
 
 ******************************************
 Gaussian 16:  ES64L-G16RevB.01 20-Dec-2017
                 9-Dec-2025 
 ******************************************
 %mem=8GB
 %nprocshare=4
 Will use up to    4 processors via shared memory.
 %oldchk=geometry_chks/123456ClBzAnionRadical.chk
 %chk=frequency_chks/123456ClBzAnionRadical_Freq.chk
 Copying data from "geometry_chks/123456ClBzAnionRadical.chk" to current chk file "frequency_chks/123456ClBzAnionRadical_Freq.chk"
 IOpt=  2 FromEx=T IUOpen= 4 IOptOp= 5 NList=   0 IFRang= 0 IUIn= 4 IUOut= 2.
 -------------------------------------------------------
 # opt freq 6-311++g(d,p) guess=read geom=allcheck m062x
 -------------------------------------------------------
 1/18=20,19=15,26=3,29=7,38=1/1,3;
 2/9=110,12=2,40=1/2;
 3/5=4,6=6,7=1111,11=2,14=-4,25=1,30=1,71=1,74=-55,116=-2/1,2,3;
 4/5=1/1;
 5/5=2,38=6/2;
 6/7=2,8=2,9=2,10=2,28=1/1;
 7//1,2,3,16;
 1/18=20,19=15,26=3/3(2);
 2/9=110/2;
 99//99;
 2/9=110/2;
 3/5=4,6=6,7=1111,11=2,14=-2,25=1,30=1,71=1,74=-55/1,2,3;
 4/5=5,16=3,69=1/1;
 5/5=2,38=5/2;
 7//1,2,3,16;
 1/18=20,19=15,26=3/3(-5);
 2/9=110/2;
 6/7=2,8=2,9=2,10=2,19=2,28=1/1;
 99/9=1/99;
 Structure from the checkpoint file:  "frequency_chks/123456ClBzAnionRadical_Freq.chk"
 ---------------------------------------
 6-Chloro-Benzene Anion Radical (123456)
 ---------------------------------------
 Charge = -1 Multiplicity = 2
 Redundant internal coordinates found in file.  (old form).
 C,0,-3.2147042248,0.2023670066,0.
 C,0,-1.9980920296,0.9323387701,0.
 C,0,-0.7851291483,0.2757700128,0.
 C,0,-0.7310790046,-1.1420053155,0.
 C,0,-1.9476913431,-1.8719771458,0.
 C,0,-3.1606541226,-1.215408315,0.
 Cl,0,-4.6257478324,-2.0997378812,0.
 Cl,0,-4.7094813102,1.011480154,0.
 Cl,0,-2.0587708849,2.6425603415,0.
 Cl,0,0.6799645664,1.1600995985,0.
 Cl,0,0.763698129,-1.9511185345,0.
 Cl,0,-1.8870128,-3.5821987006,0.
 Recover connectivity data from disk.

 GradGradGradGradGradGradGradGradGradGradGradGradGradGradGradGradGradGrad
 Berny optimization.
 Initialization pass.
                           ----------------------------
                           !    Initial Parameters    !
                           ! (Angstroms and Degrees)  !
 --------------------------                            --------------------------
 ! Name  Definition              Value          Derivative Info.                !
 --------------------------------------------------------------------------------
 ! R1    R(1,2)                  1.4188         estimate D2E/DX2                !
 ! R2    R(1,6)                  1.4188         estimate D2E/DX2                !
 ! R3    R(1,8)                  1.6997         estimate D2E/DX2                !
 ! R4    R(2,3)                  1.3793         estimate D2E/DX2                !
 ! R5    R(2,9)                  1.7113         estimate D2E/DX2                !
 ! R6    R(3,4)                  1.4188         estimate D2E/DX2                !
 ! R7    R(3,10)                 1.7113         estimate D2E/DX2                !
 ! R8    R(4,5)                  1.4188         estimate D2E/DX2                !
 ! R9    R(4,11)                 1.6997         estimate D2E/DX2                !
 ! R10   R(5,6)                  1.3793         estimate D2E/DX2                !
 ! R11   R(5,12)                 1.7113         estimate D2E/DX2                !
 ! R12   R(6,7)                  1.7113         estimate D2E/DX2                !
 ! A1    A(2,1,6)              118.7807         estimate D2E/DX2                !
 ! A2    A(2,1,8)              120.6097         estimate D2E/DX2                !
 ! A3    A(6,1,8)              120.6096         estimate D2E/DX2                !
 ! A4    A(1,2,3)              120.6097         estimate D2E/DX2                !
 ! A5    A(1,2,9)              118.9319         estimate D2E/DX2                !
 ! A6    A(3,2,9)              120.4584         estimate D2E/DX2                !
 ! A7    A(2,3,4)              120.6096         estimate D2E/DX2                !
 ! A8    A(2,3,10)             120.4585         estimate D2E/DX2                !
 ! A9    A(4,3,10)             118.9319         estimate D2E/DX2                !
 ! A10   A(3,4,5)              118.7807         estimate D2E/DX2                !
 ! A11   A(3,4,11)             120.6096         estimate D2E/DX2                !
 ! A12   A(5,4,11)             120.6097         estimate D2E/DX2                !
 ! A13   A(4,5,6)              120.6097         estimate D2E/DX2                !
 ! A14   A(4,5,12)             118.9319         estimate D2E/DX2                !
 ! A15   A(6,5,12)             120.4584         estimate D2E/DX2                !
 ! A16   A(1,6,5)              120.6096         estimate D2E/DX2                !
 ! A17   A(1,6,7)              118.9319         estimate D2E/DX2                !
 ! A18   A(5,6,7)              120.4585         estimate D2E/DX2                !
 ! D1    D(6,1,2,3)              0.0            estimate D2E/DX2                !
 ! D2    D(6,1,2,9)            180.0            estimate D2E/DX2                !
 ! D3    D(8,1,2,3)            180.0            estimate D2E/DX2                !
 ! D4    D(8,1,2,9)              0.0            estimate D2E/DX2                !
 ! D5    D(2,1,6,5)              0.0            estimate D2E/DX2                !
 ! D6    D(2,1,6,7)            180.0            estimate D2E/DX2                !
 ! D7    D(8,1,6,5)            180.0            estimate D2E/DX2                !
 ! D8    D(8,1,6,7)              0.0            estimate D2E/DX2                !
 ! D9    D(1,2,3,4)              0.0            estimate D2E/DX2                !
 ! D10   D(1,2,3,10)           180.0            estimate D2E/DX2                !
 ! D11   D(9,2,3,4)            180.0            estimate D2E/DX2                !
 ! D12   D(9,2,3,10)             0.0            estimate D2E/DX2                !
 ! D13   D(2,3,4,5)              0.0            estimate D2E/DX2                !
 ! D14   D(2,3,4,11)           180.0            estimate D2E/DX2                !
 ! D15   D(10,3,4,5)           180.0            estimate D2E/DX2                !
 ! D16   D(10,3,4,11)            0.0            estimate D2E/DX2                !
 ! D17   D(3,4,5,6)              0.0            estimate D2E/DX2                !
 ! D18   D(3,4,5,12)           180.0            estimate D2E/DX2                !
 ! D19   D(11,4,5,6)           180.0            estimate D2E/DX2                !
 ! D20   D(11,4,5,12)            0.0            estimate D2E/DX2                !
 ! D21   D(4,5,6,1)              0.0            estimate D2E/DX2                !
 ! D22   D(4,5,6,7)            180.0            estimate D2E/DX2                !
 ! D23   D(12,5,6,1)           180.0            estimate D2E/DX2                !
 ! D24   D(12,5,6,7)             0.0            estimate D2E/DX2                !
 --------------------------------------------------------------------------------
 Trust Radius=3.00D-01 FncErr=1.00D-07 GrdErr=1.00D-06 EigMax=2.50D+02 EigMin=1.00D-04
 Number of steps in this run=     64 maximum allowed number of steps=    100.
 GradGradGradGradGradGradGradGradGradGradGradGradGradGradGradGradGradGrad

                          Input orientation:                          
 ---------------------------------------------------------------------
 Center     Atomic      Atomic             Coordinates (Angstroms)
 Number     Number       Type             X           Y           Z
 ---------------------------------------------------------------------
      1          6           0       -3.214704    0.202367    0.000000
      2          6           0       -1.998092    0.932339    0.000000
      3          6           0       -0.785129    0.275770    0.000000
      4          6           0       -0.731079   -1.142005    0.000000
      5          6           0       -1.947691   -1.871977    0.000000
      6          6           0       -3.160654   -1.215408    0.000000
      7         17           0       -4.625748   -2.099738    0.000000
      8         17           0       -4.709481    1.011480    0.000000
      9         17           0       -2.058771    2.642560    0.000000
     10         17           0        0.679965    1.160100    0.000000
     11         17           0        0.763698   -1.951119    0.000000
     12         17           0       -1.887013   -3.582199    0.000000
 ---------------------------------------------------------------------
                    Distance matrix (angstroms):
                    1          2          3          4          5
     1  C    0.000000
     2  C    1.418804   0.000000
     3  C    2.430684   1.379261   0.000000
     4  C    2.824134   2.430684   1.418805   0.000000
     5  C    2.430684   2.804769   2.442206   1.418804   0.000000
     6  C    1.418805   2.442206   2.804769   2.430684   1.379261
     7  Cl   2.700135   4.012239   4.515904   4.010698   2.687724
     8  Cl   1.699713   2.712544   3.992720   4.523846   3.992720
     9  Cl   2.700134   1.711298   2.687724   4.010699   4.515904
    10  Cl   4.010698   2.687724   1.711297   2.700135   4.012239
    11  Cl   4.523846   3.992720   2.712545   1.699713   2.712544
    12  Cl   4.010698   4.515904   4.012240   2.700135   1.711298
                    6          7          8          9         10
     6  C    0.000000
     7  Cl   1.711297   0.000000
     8  Cl   2.712545   3.112345   0.000000
     9  Cl   4.012240   5.392473   3.112345   0.000000
    10  Cl   4.515904   6.227128   5.391495   3.114219   0.000000
    11  Cl   3.992720   5.391495   6.223559   5.391495   3.112345
    12  Cl   2.687724   3.114219   5.391495   6.227128   5.392473
                   11         12
    11  Cl   0.000000
    12  Cl   3.112345   0.000000
 Stoichiometry    C6Cl6(1-,2)
 Framework group  CS[SG(C6Cl6)]
 Deg. of freedom    21
 Full point group                 CS      NOp   2
 Largest Abelian subgroup         CS      NOp   2
 Largest concise Abelian subgroup C1      NOp   1
                         Standard orientation:                         
 ---------------------------------------------------------------------
 Center     Atomic      Atomic             Coordinates (Angstroms)
 Number     Number       Type             X           Y           Z
 ---------------------------------------------------------------------
      1          6           0       -1.412067   -0.000001    0.000000
      2          6           0       -0.689631   -1.221103    0.000000
      3          6           0        0.689631   -1.221103    0.000000
      4          6           0        1.412067    0.000001    0.000000
      5          6           0        0.689631    1.221103    0.000000
      6          6           0       -0.689631    1.221103    0.000000
      7         17           0       -1.557110    2.696236    0.000000
      8         17           0       -3.111779   -0.000000    0.000000
      9         17           0       -1.557109   -2.696237    0.000000
     10         17           0        1.557110   -2.696236    0.000000
     11         17           0        3.111779    0.000000    0.000000
     12         17           0        1.557109    2.696237    0.000000
 ---------------------------------------------------------------------
 Rotational constants (GHZ):           0.4649121           0.4643220           0.2323084
 Standard basis: 6-311++G(d,p) (5D, 7F)
 There are   240 symmetry adapted cartesian basis functions of A'  symmetry.
 There are    84 symmetry adapted cartesian basis functions of A"  symmetry.
 There are   228 symmetry adapted basis functions of A'  symmetry.
 There are    84 symmetry adapted basis functions of A"  symmetry.
   312 basis functions,   534 primitive gaussians,   324 cartesian basis functions
    70 alpha electrons       69 beta electrons
       nuclear repulsion energy      1350.2030890814 Hartrees.
 NAtoms=   12 NActive=   12 NUniq=   12 SFac= 1.00D+00 NAtFMM=   60 NAOKFM=F Big=F
 Integral buffers will be    131072 words long.
 Raffenetti 2 integral format.
 Two-electron integral symmetry is turned on.
 One-electron integrals computed using PRISM.
 NBasis=   312 RedAO= T EigKep=  1.63D-06  NBF=   228    84
 NBsUse=   310 1.00D-06 EigRej=  2.41D-07 NBFU=   226    84
 Initial guess from the checkpoint file:  "frequency_chks/123456ClBzAnionRadical_Freq.chk"
 B after Tr=     0.000000   -0.000000    0.000000
         Rot=    1.000000   -0.000000   -0.000000   -0.000000 Ang=   0.00 deg.
 Initial guess orbital symmetries:
 Alpha Orbitals:
       Occupied  (A') (A') (A') (A') (A') (A') (A') (A') (A') (A')
                 (A') (A') (A') (A') (A') (A") (A') (A') (A') (A")
                 (A") (A") (A") (A") (A') (A') (A') (A') (A') (A')
                 (A") (A") (A") (A") (A") (A') (A') (A') (A') (A")
                 (A') (A') (A') (A') (A') (A') (A') (A') (A') (A')
                 (A') (A') (A') (A') (A') (A') (A') (A') (A') (A')
                 (A') (A') (A') (A') (A') (A') (A') (A') (A') (A')
       Virtual   (A') (A') (A') (A') (A') (A') (A') (A') (A') (A')
                 (A') (A') (A') (A') (A') (A') (A') (A') (A') (A')
                 (A') (A') (A') (A') (A') (A') (A') (A') (A') (A')
                 (A') (A') (A') (A') (A') (A') (A') (A') (A') (A')
                 (A') (A') (A') (A') (A') (A') (A') (A') (A') (A')
                 (A') (A') (A') (A') (A') (A') (A') (A') (A') (A')
                 (A') (A') (A') (A') (A') (A') (A') (A') (A') (A')
                 (A') (A') (A') (A') (A') (A') (A') (A') (A') (A')
                 (A') (A') (A') (A') (A') (A') (A') (A') (A') (A')
                 (A') (A') (A') (A') (A') (A') (A') (A') (A') (A')
                 (A') (A') (A') (A') (A') (A') (A') (A') (A') (A')
                 (A') (A') (A') (A') (A') (A') (A') (A') (A') (A')
                 (A') (A') (A') (A') (A') (A') (A') (A') (A') (A')
                 (A') (A') (A') (A') (A') (A') (A') (A') (A') (A')
                 (A') (A') (A') (A') (A') (A') (A') (A') (A') (A')
                 (A') (A') (A') (A') (A') (A') (A') (A') (A') (A')
                 (A') (A') (A') (A') (A') (A') (A') (A') (A") (A")
                 (A") (A") (A") (A") (A") (A") (A") (A") (A") (A")
                 (A") (A") (A") (A") (A") (A") (A") (A") (A") (A")
                 (A") (A") (A") (A") (A") (A") (A") (A") (A") (A")
                 (A") (A") (A") (A") (A") (A") (A") (A") (A") (A")
                 (A") (A") (A") (A") (A") (A") (A") (A") (A") (A")
                 (A") (A") (A") (A") (A") (A") (A") (A") (A") (A")
                 (A") (A") (A") (A") (A") (A") (A") (A") (A") (A")
 Beta  Orbitals:
       Occupied  (A') (A') (A') (A') (A') (A') (A') (A') (A') (A')
                 (A') (A') (A') (A') (A') (A") (A') (A') (A') (A")
                 (A") (A") (A") (A") (A') (A') (A') (A') (A') (A')
                 (A") (A") (A") (A") (A') (A") (A') (A') (A') (A')
                 (A') (A") (A') (A') (A') (A') (A') (A') (A') (A')
                 (A') (A') (A') (A') (A') (A') (A') (A') (A') (A')
                 (A') (A') (A') (A') (A') (A') (A') (A') (A')
       Virtual   (A') (A') (A') (A') (A') (A') (A') (A') (A') (A')
                 (A') (A') (A') (A') (A') (A') (A') (A') (A') (A')
                 (A') (A') (A') (A') (A') (A') (A') (A') (A') (A')
                 (A') (A') (A') (A') (A') (A') (A') (A') (A') (A')
                 (A') (A') (A') (A') (A') (A') (A') (A') (A') (A')
                 (A') (A') (A') (A') (A') (A') (A') (A') (A') (A')
                 (A') (A') (A') (A') (A') (A') (A') (A') (A') (A')
                 (A') (A') (A') (A') (A') (A') (A') (A') (A') (A')
                 (A') (A') (A') (A') (A') (A') (A') (A') (A') (A')
                 (A') (A') (A') (A') (A') (A') (A') (A') (A') (A')
                 (A') (A') (A') (A') (A') (A') (A') (A') (A') (A')
                 (A') (A') (A') (A') (A') (A') (A') (A') (A') (A')
                 (A') (A') (A') (A') (A') (A') (A') (A') (A') (A')
                 (A') (A') (A') (A') (A') (A') (A') (A') (A') (A')
                 (A') (A') (A') (A') (A') (A') (A') (A') (A') (A')
                 (A') (A') (A') (A') (A') (A') (A') (A') (A') (A')
                 (A') (A') (A') (A') (A') (A') (A') (A') (A') (A")
                 (A") (A") (A") (A") (A") (A") (A") (A") (A") (A")
                 (A") (A") (A") (A") (A") (A") (A") (A") (A") (A")
                 (A") (A") (A") (A") (A") (A") (A") (A") (A") (A")
                 (A") (A") (A") (A") (A") (A") (A") (A") (A") (A")
                 (A") (A") (A") (A") (A") (A") (A") (A") (A") (A")
                 (A") (A") (A") (A") (A") (A") (A") (A") (A") (A")
                 (A") (A") (A") (A") (A") (A") (A") (A") (A") (A")
                 (A")
 Initial guess <Sx>= 0.0000 <Sy>= 0.0000 <Sz>= 0.5000 <S**2>= 0.7500 S= 0.5000
 Requested convergence on RMS density matrix=1.00D-08 within 128 cycles.
 Requested convergence on MAX density matrix=1.00D-06.
 Requested convergence on             energy=1.00D-06.
 No special actions if energy rises.
 EnCoef did     5 forward-backward iterations
 Restarting incremental Fock formation.
 SCF Done:  E(UM062X) =  -2989.76032283     A.U. after   29 cycles
            NFock= 29  Conv=0.67D-08     -V/T= 2.0020
 <Sx>= 0.0000 <Sy>= 0.0000 <Sz>= 0.5000 <S**2>= 0.7515 S= 0.5008
 <L.S>=  0.00000000000    
 Annihilation of the first spin contaminant:
 S**2 before annihilation     0.7515,   after     0.7500

 **********************************************************************

            Population analysis using the SCF Density.

 **********************************************************************

 Orbital symmetries:
 Alpha Orbitals:
       Occupied  (A') (A') (A') (A') (A') (A') (A') (A') (A') (A')
                 (A') (A') (A') (A') (A') (A') (A') (A') (A') (A')
                 (A') (A') (A') (A') (A") (A") (A') (A') (A") (A")
                 (A") (A") (A') (A') (A') (A') (A') (A') (A') (A')
                 (A') (A') (A') (A') (A') (A') (A') (A') (A') (A')
                 (A") (A') (A') (A') (A') (A") (A") (A") (A") (A')
                 (A') (A') (A") (A') (A') (A") (A') (A") (A") (A')
       Virtual   (A") (A") (A') (A') (A') (A') (A') (A') (A") (A')
                 (A') (A') (A") (A") (A') (A") (A") (A') (A') (A')
                 (A') (A") (A') (A') (A") (A') (A') (A') (A') (A")
                 (A') (A") (A") (A') (A') (A') (A') (A") (A") (A')
                 (A') (A') (A') (A') (A') (A') (A") (A') (A') (A')
                 (A') (A') (A') (A') (A') (A') (A') (A') (A') (A')
                 (A") (A') (A") (A") (A') (A') (A') (A') (A") (A")
                 (A') (A') (A') (A') (A") (A') (A') (A") (A') (A")
                 (A") (A") (A") (A') (A') (A') (A') (A') (A") (A')
                 (A") (A') (A') (A") (A") (A') (A') (A") (A') (A")
                 (A') (A") (A') (A') (A') (A") (A") (A") (A') (A")
                 (A") (A') (A') (A') (A') (A') (A') (A') (A') (A')
                 (A") (A') (A') (A') (A') (A') (A") (A') (A') (A')
                 (A') (A') (A") (A') (A') (A') (A") (A") (A') (A')
                 (A") (A") (A') (A') (A') (A') (A') (A') (A') (A")
                 (A") (A') (A') (A') (A') (A") (A") (A") (A') (A')
                 (A') (A') (A") (A") (A") (A") (A") (A") (A') (A')
                 (A") (A') (A') (A') (A') (A') (A') (A') (A') (A')
                 (A') (A') (A") (A') (A') (A') (A") (A") (A") (A")
                 (A') (A") (A') (A') (A') (A') (A') (A') (A') (A')
                 (A') (A') (A') (A') (A') (A') (A') (A') (A') (A')
                 (A') (A') (A') (A') (A') (A') (A") (A") (A") (A")
                 (A") (A") (A') (A') (A') (A') (A') (A') (A') (A')
                 (A') (A') (A') (A') (A') (A') (A') (A') (A') (A')
 Beta  Orbitals:
       Occupied  (A') (A') (A') (A') (A') (A') (A') (A') (A') (A')
                 (A') (A') (A') (A') (A') (A') (A') (A') (A') (A')
                 (A') (A') (A') (A') (A") (A") (A') (A') (A") (A")
                 (A") (A") (A') (A') (A') (A') (A') (A') (A') (A')
                 (A') (A') (A') (A') (A') (A') (A') (A') (A') (A')
                 (A") (A') (A') (A') (A') (A") (A") (A") (A") (A')
                 (A') (A') (A") (A') (A') (A") (A') (A") (A")
       Virtual   (A') (A") (A") (A') (A') (A') (A') (A') (A') (A")
                 (A') (A') (A') (A") (A") (A') (A") (A") (A') (A')
                 (A') (A") (A") (A') (A') (A') (A') (A') (A') (A")
                 (A") (A') (A") (A') (A') (A') (A') (A") (A") (A')
                 (A') (A') (A') (A') (A') (A') (A') (A") (A') (A')
                 (A') (A') (A') (A') (A') (A') (A') (A') (A') (A')
                 (A') (A") (A') (A") (A") (A') (A') (A') (A') (A')
                 (A") (A") (A') (A') (A') (A") (A') (A') (A") (A")
                 (A') (A") (A") (A") (A') (A') (A') (A') (A') (A")
                 (A') (A") (A') (A') (A") (A") (A') (A') (A") (A')
                 (A') (A") (A") (A') (A') (A") (A') (A") (A") (A')
                 (A") (A") (A') (A') (A') (A') (A') (A') (A') (A')
                 (A') (A') (A") (A') (A') (A') (A') (A") (A') (A')
                 (A') (A') (A') (A") (A') (A') (A') (A") (A") (A')
                 (A') (A") (A") (A') (A') (A') (A') (A') (A') (A')
                 (A") (A") (A') (A') (A') (A') (A") (A") (A") (A')
                 (A') (A') (A') (A") (A") (A") (A") (A") (A") (A')
                 (A') (A") (A') (A') (A') (A') (A') (A') (A') (A')
                 (A') (A') (A') (A") (A') (A') (A') (A") (A") (A")
                 (A") (A') (A") (A') (A') (A') (A') (A') (A') (A')
                 (A') (A') (A') (A') (A') (A') (A') (A') (A') (A')
                 (A') (A') (A') (A') (A') (A') (A') (A") (A") (A")
                 (A") (A") (A") (A') (A') (A') (A') (A') (A') (A')
                 (A') (A') (A') (A') (A') (A') (A') (A') (A') (A')
                 (A')
 The electronic state is 2-A'.
 Alpha  occ. eigenvalues -- -102.55804-102.55804-102.55470-102.55470-102.55470
 Alpha  occ. eigenvalues -- -102.55470 -10.50210 -10.50210 -10.49875 -10.49867
 Alpha  occ. eigenvalues --  -10.49791 -10.49786  -9.70187  -9.70187  -9.69851
 Alpha  occ. eigenvalues --   -9.69850  -9.69850  -9.69849  -7.42741  -7.42741
 Alpha  occ. eigenvalues --   -7.42405  -7.42405  -7.42405  -7.42405  -7.42031
 Alpha  occ. eigenvalues --   -7.42031  -7.41976  -7.41976  -7.41693  -7.41693
 Alpha  occ. eigenvalues --   -7.41693  -7.41693  -7.41641  -7.41641  -7.41641
 Alpha  occ. eigenvalues --   -7.41641  -0.93615  -0.89019  -0.89009  -0.84387
 Alpha  occ. eigenvalues --   -0.83974  -0.81990  -0.78319  -0.68877  -0.68084
 Alpha  occ. eigenvalues --   -0.57034  -0.56077  -0.48936  -0.46750  -0.42306
 Alpha  occ. eigenvalues --   -0.40680  -0.39609  -0.39382  -0.36455  -0.35789
 Alpha  occ. eigenvalues --   -0.34253  -0.34141  -0.29215  -0.28929  -0.28218
 Alpha  occ. eigenvalues --   -0.27857  -0.27834  -0.27663  -0.25955  -0.25775
 Alpha  occ. eigenvalues --   -0.24091  -0.22907  -0.17317  -0.16600   0.03414
 Alpha virt. eigenvalues --    0.11141   0.12249   0.13505   0.13657   0.14458
 Alpha virt. eigenvalues --    0.15930   0.15960   0.17032   0.17760   0.18112
 Alpha virt. eigenvalues --    0.18524   0.19033   0.19125   0.19149   0.21796
 Alpha virt. eigenvalues --    0.21845   0.21877   0.22970   0.23118   0.23217
 Alpha virt. eigenvalues --    0.23295   0.23617   0.24048   0.24050   0.24748
 Alpha virt. eigenvalues --    0.25835   0.28296   0.28407   0.28442   0.29067
 Alpha virt. eigenvalues --    0.29161   0.29289   0.29334   0.29393   0.31397
 Alpha virt. eigenvalues --    0.31796   0.31829   0.32098   0.32204   0.33062
 Alpha virt. eigenvalues --    0.33922   0.35399   0.35897   0.36121   0.36836
 Alpha virt. eigenvalues --    0.36860   0.39103   0.39340   0.39501   0.41259
 Alpha virt. eigenvalues --    0.41639   0.41737   0.41937   0.41954   0.42405
 Alpha virt. eigenvalues --    0.42574   0.43344   0.43363   0.52636   0.54561
 Alpha virt. eigenvalues --    0.55643   0.57232   0.58197   0.58290   0.60397
 Alpha virt. eigenvalues --    0.60424   0.61038   0.62193   0.62215   0.62309
 Alpha virt. eigenvalues --    0.62547   0.63559   0.63676   0.63941   0.64065
 Alpha virt. eigenvalues --    0.65176   0.65741   0.67536   0.73523   0.73813
 Alpha virt. eigenvalues --    0.74219   0.76898   0.77189   0.77726   0.78717
 Alpha virt. eigenvalues --    0.80641   0.81362   0.81804   0.83370   0.83392
 Alpha virt. eigenvalues --    0.89040   0.91130   0.95877   0.97817   0.98293
 Alpha virt. eigenvalues --    1.00419   1.01117   1.02667   1.02941   1.03176
 Alpha virt. eigenvalues --    1.03236   1.03241   1.04175   1.04405   1.04880
 Alpha virt. eigenvalues --    1.04908   1.05307   1.05530   1.08968   1.09221
 Alpha virt. eigenvalues --    1.09260   1.09576   1.10089   1.11017   1.11077
 Alpha virt. eigenvalues --    1.11324   1.11793   1.12125   1.13044   1.15079
 Alpha virt. eigenvalues --    1.15251   1.15348   1.18582   1.19861   1.24818
 Alpha virt. eigenvalues --    1.25091   1.27619   1.28680   1.36296   1.36338
 Alpha virt. eigenvalues --    1.37040   1.37370   1.42806   1.46408   1.46832
 Alpha virt. eigenvalues --    1.47066   1.47165   1.47333   1.48656   1.48865
 Alpha virt. eigenvalues --    1.50095   1.50632   1.54467   1.62200   1.62468
 Alpha virt. eigenvalues --    1.70488   1.79917   1.86506   1.87053   1.92493
 Alpha virt. eigenvalues --    1.93864   1.95119   1.95947   1.99531   2.00103
 Alpha virt. eigenvalues --    2.00647   2.03760   2.11912   2.27131   2.27946
 Alpha virt. eigenvalues --    2.34779   2.36630   2.38868   2.40183   2.40340
 Alpha virt. eigenvalues --    2.41535   2.44160   2.44489   2.47271   2.48208
 Alpha virt. eigenvalues --    2.49634   2.52472   2.53555   2.54322   2.55457
 Alpha virt. eigenvalues --    2.56545   2.61751   2.63065   2.63171   2.67248
 Alpha virt. eigenvalues --    2.69929   2.69972   2.78821   2.80584   2.81878
 Alpha virt. eigenvalues --    2.82429   2.93809   2.94179   3.04690   3.05149
 Alpha virt. eigenvalues --    3.15287   3.25088   3.26041   3.33450   3.33791
 Alpha virt. eigenvalues --    3.35021   3.41557   3.44581   3.69169   3.72707
 Alpha virt. eigenvalues --    3.89893   4.04945   4.08133   4.94204   9.99496
 Alpha virt. eigenvalues --   10.11795  10.11831  10.15155  10.15215  10.15574
 Alpha virt. eigenvalues --   23.44376  23.94440  24.00732  24.07807  24.18369
 Alpha virt. eigenvalues --   24.20925  25.98960  26.03113  26.03216  26.08982
 Alpha virt. eigenvalues --   26.09153  26.18427  26.27710  26.28658  26.41252
 Alpha virt. eigenvalues --   26.42641  26.42662  26.53802  26.55052  26.79635
 Alpha virt. eigenvalues --   26.79666  27.04678  27.04858  27.30990 216.08325
 Alpha virt. eigenvalues --  216.22357 216.22370 216.26392 216.26446 216.26796
  Beta  occ. eigenvalues -- -102.55705-102.55705-102.55367-102.55367-102.55367
  Beta  occ. eigenvalues -- -102.55367 -10.50134 -10.50133 -10.49802 -10.49792
  Beta  occ. eigenvalues --  -10.49719 -10.49714  -9.70125  -9.70125  -9.69787
  Beta  occ. eigenvalues --   -9.69787  -9.69786  -9.69785  -7.42546  -7.42546
  Beta  occ. eigenvalues --   -7.42202  -7.42202  -7.42202  -7.42202  -7.41987
  Beta  occ. eigenvalues --   -7.41987  -7.41933  -7.41933  -7.41646  -7.41646
  Beta  occ. eigenvalues --   -7.41646  -7.41646  -7.41596  -7.41596  -7.41596
  Beta  occ. eigenvalues --   -7.41596  -0.93193  -0.88521  -0.88515  -0.83857
  Beta  occ. eigenvalues --   -0.83431  -0.81443  -0.77712  -0.68520  -0.67731
  Beta  occ. eigenvalues --   -0.56717  -0.55758  -0.48758  -0.45521  -0.41737
  Beta  occ. eigenvalues --   -0.40384  -0.38924  -0.38724  -0.35944  -0.35289
  Beta  occ. eigenvalues --   -0.34035  -0.33938  -0.29016  -0.28725  -0.27911
  Beta  occ. eigenvalues --   -0.27608  -0.27523  -0.27448  -0.25730  -0.25545
  Beta  occ. eigenvalues --   -0.23803  -0.22664  -0.16990  -0.16291
  Beta virt. eigenvalues --    0.10591   0.11275   0.12380   0.12931   0.12941
  Beta virt. eigenvalues --    0.14402   0.14757   0.14780   0.16012   0.16712
  Beta virt. eigenvalues --    0.17739   0.18402   0.18531   0.18541   0.18586
  Beta virt. eigenvalues --    0.19369   0.21237   0.21285   0.21300   0.21344
  Beta virt. eigenvalues --    0.22538   0.22657   0.22711   0.22972   0.23321
  Beta virt. eigenvalues --    0.23372   0.26830   0.26964   0.26996   0.27562
  Beta virt. eigenvalues --    0.27567   0.28376   0.29203   0.29808   0.30064
  Beta virt. eigenvalues --    0.30581   0.30667   0.31111   0.31267   0.32115
  Beta virt. eigenvalues --    0.32127   0.33336   0.34982   0.35045   0.35193
  Beta virt. eigenvalues --    0.37597   0.37624   0.39010   0.39542   0.39708
  Beta virt. eigenvalues --    0.41263   0.41408   0.41675   0.41759   0.42284
  Beta virt. eigenvalues --    0.42619   0.42669   0.43569   0.43719   0.53554
  Beta virt. eigenvalues --    0.54859   0.56041   0.57378   0.58545   0.58636
  Beta virt. eigenvalues --    0.60540   0.60635   0.61091   0.62019   0.62407
  Beta virt. eigenvalues --    0.62729   0.62831   0.63725   0.63794   0.64008
  Beta virt. eigenvalues --    0.64745   0.64944   0.65449   0.67715   0.74102
  Beta virt. eigenvalues --    0.74134   0.74491   0.77140   0.77444   0.78015
  Beta virt. eigenvalues --    0.79029   0.80803   0.81727   0.82044   0.83614
  Beta virt. eigenvalues --    0.83658   0.89380   0.90800   0.95805   0.98059
  Beta virt. eigenvalues --    0.98537   1.00580   1.01273   1.02893   1.02970
  Beta virt. eigenvalues --    1.03270   1.03395   1.03456   1.04277   1.04508
  Beta virt. eigenvalues --    1.05089   1.05117   1.05488   1.05714   1.09261
  Beta virt. eigenvalues --    1.09413   1.09454   1.09787   1.10330   1.11124
  Beta virt. eigenvalues --    1.11208   1.11490   1.11797   1.12120   1.13122
  Beta virt. eigenvalues --    1.15182   1.15438   1.15651   1.18968   1.19849
  Beta virt. eigenvalues --    1.24863   1.25143   1.27806   1.28974   1.36459
  Beta virt. eigenvalues --    1.36495   1.37198   1.37539   1.43327   1.46369
  Beta virt. eigenvalues --    1.46673   1.46913   1.47549   1.47701   1.48852
  Beta virt. eigenvalues --    1.49063   1.50564   1.51096   1.54074   1.62673
  Beta virt. eigenvalues --    1.62808   1.70623   1.80006   1.87030   1.87544
  Beta virt. eigenvalues --    1.92834   1.94206   1.95564   1.96364   1.99978
  Beta virt. eigenvalues --    2.00567   2.00940   2.04052   2.12229   2.27495
  Beta virt. eigenvalues --    2.28348   2.35222   2.37070   2.39118   2.40428
  Beta virt. eigenvalues --    2.40590   2.41752   2.44411   2.44745   2.47566
  Beta virt. eigenvalues --    2.48506   2.49904   2.52711   2.53900   2.54524
  Beta virt. eigenvalues --    2.55654   2.56774   2.62342   2.63439   2.63577
  Beta virt. eigenvalues --    2.67691   2.70479   2.70545   2.79302   2.81223
  Beta virt. eigenvalues --    2.82378   2.82932   2.94234   2.94611   3.05134
  Beta virt. eigenvalues --    3.05583   3.15847   3.25533   3.26544   3.33909
  Beta virt. eigenvalues --    3.34188   3.35538   3.42001   3.45001   3.69797
  Beta virt. eigenvalues --    3.73349   3.90373   4.05638   4.08854   4.94990
  Beta virt. eigenvalues --    9.99524  10.11810  10.11845  10.15157  10.15217
  Beta virt. eigenvalues --   10.15572  23.44418  23.94553  24.00860  24.07967
  Beta virt. eigenvalues --   24.18543  24.21110  25.99203  26.03350  26.03460
  Beta virt. eigenvalues --   26.09220  26.09398  26.18675  26.27958  26.28911
  Beta virt. eigenvalues --   26.41508  26.42905  26.42928  26.54319  26.55320
  Beta virt. eigenvalues --   26.80128  26.80176  27.05183  27.05379  27.31543
  Beta virt. eigenvalues --  216.08475 216.22505 216.22521 216.26542 216.26593
  Beta virt. eigenvalues --  216.26945
          Condensed to atoms (all electrons):
               1          2          3          4          5          6
     1  C   24.865057  -1.342951  -5.432031   3.329303  -5.432076  -1.342885
     2  C   -1.342951  24.215932  -2.286024  -5.432075   5.109839  -6.277804
     3  C   -5.432031  -2.286024  24.215912  -1.342892  -6.277800   5.109757
     4  C    3.329303  -5.432075  -1.342892  24.865035  -1.342955  -5.432030
     5  C   -5.432076   5.109839  -6.277800  -1.342955  24.215931  -2.286020
     6  C   -1.342885  -6.277804   5.109757  -5.432030  -2.286020  24.215937
     7  Cl  -1.549232  -0.920330   0.432161  -0.848496  -1.432842  -3.108749
     8  Cl  -3.456048  -1.350592  -0.861807   0.374888  -0.861811  -1.350597
     9  Cl  -1.549238  -3.108730  -1.432846  -0.848500   0.432162  -0.920332
    10  Cl  -0.848501  -1.432844  -3.108738  -1.549228  -0.920332   0.432159
    11  Cl   0.374885  -0.861813  -1.350594  -3.456041  -1.350597  -0.861811
    12  Cl  -0.848502   0.432163  -0.920329  -1.549231  -3.108729  -1.432852
               7          8          9         10         11         12
     1  C   -1.549232  -3.456048  -1.549238  -0.848501   0.374885  -0.848502
     2  C   -0.920330  -1.350592  -3.108730  -1.432844  -0.861813   0.432163
     3  C    0.432161  -0.861807  -1.432846  -3.108738  -1.350594  -0.920329
     4  C   -0.848496   0.374888  -0.848500  -1.549228  -3.456041  -1.549231
     5  C   -1.432842  -0.861811   0.432162  -0.920332  -1.350597  -3.108729
     6  C   -3.108749  -1.350597  -0.920332   0.432159  -0.861811  -1.432852
     7  Cl  20.500674   1.146277   0.397752   0.248651   0.401379   1.156764
     8  Cl   1.146277  20.551428   1.146277   0.401379   0.253885   0.401378
     9  Cl   0.397752   1.146277  20.500672   1.156764   0.401379   0.248651
    10  Cl   0.248651   0.401379   1.156764  20.500672   1.146277   0.397752
    11  Cl   0.401379   0.253885   0.401379   1.146277  20.551431   1.146277
    12  Cl   1.156764   0.401378   0.248651   0.397752   1.146277  20.500669
          Atomic-Atomic Spin Densities.
               1          2          3          4          5          6
     1  C    1.843141   1.592765   0.734588   0.785115   0.734583   1.592769
     2  C    1.592765   1.665911   1.524482   0.734581   0.617471   0.594866
     3  C    0.734588   1.524482   1.665907   1.592761   0.594866   0.617476
     4  C    0.785115   0.734581   1.592761   1.843127   1.592761   0.734587
     5  C    0.734583   0.617471   0.594866   1.592761   1.665911   1.524488
     6  C    1.592769   0.594866   0.617476   0.734587   1.524488   1.665924
     7  Cl  -1.698035  -0.380365  -0.147250  -0.447253  -1.598180  -2.356995
     8  Cl  -2.524688  -1.572079  -0.408273  -0.182037  -0.408272  -1.572086
     9  Cl  -1.698038  -2.356984  -1.598182  -0.447254  -0.147250  -0.380369
    10  Cl  -0.447258  -1.598182  -2.356985  -1.698031  -0.380368  -0.147252
    11  Cl  -0.182040  -0.408274  -1.572082  -2.524683  -1.572083  -0.408277
    12  Cl  -0.447256  -0.147249  -0.380367  -1.698029  -2.356983  -1.598189
               7          8          9         10         11         12
     1  C   -1.698035  -2.524688  -1.698038  -0.447258  -0.182040  -0.447256
     2  C   -0.380365  -1.572079  -2.356984  -1.598182  -0.408274  -0.147249
     3  C   -0.147250  -0.408273  -1.598182  -2.356985  -1.572082  -0.380367
     4  C   -0.447253  -0.182037  -0.447254  -1.698031  -2.524683  -1.698029
     5  C   -1.598180  -0.408272  -0.147250  -0.380368  -1.572083  -2.356983
     6  C   -2.356995  -1.572086  -0.380369  -0.147252  -0.408277  -1.598189
     7  Cl   2.507758   1.462856   0.427766   0.225531   0.433329   1.467147
     8  Cl   1.462856   2.534641   1.462856   0.433329   0.228273   0.433329
     9  Cl   0.427766   1.462856   2.507757   1.467148   0.433329   0.225531
    10  Cl   0.225531   0.433329   1.467148   2.507756   1.462856   0.427766
    11  Cl   0.433329   0.228273   0.433329   1.462856   2.534644   1.462856
    12  Cl   1.467147   0.433329   0.225531   0.427766   1.462856   2.507754
 Mulliken charges and spin densities:
               1          2
     1  C   -0.767780   0.285647
     2  C   -0.744771   0.266942
     3  C   -0.744770   0.266943
     4  C   -0.767779   0.285646
     5  C   -0.744771   0.266942
     6  C   -0.744772   0.266943
     7  Cl   0.575990  -0.103690
     8  Cl   0.605342  -0.112152
     9  Cl   0.575989  -0.103690
    10  Cl   0.575990  -0.103690
    11  Cl   0.605342  -0.112152
    12  Cl   0.575989  -0.103690
 Sum of Mulliken charges =  -1.00000   1.00000
 Mulliken charges and spin densities with hydrogens summed into heavy atoms:
               1          2
     1  C   -0.767780   0.285647
     2  C   -0.744771   0.266942
     3  C   -0.744770   0.266943
     4  C   -0.767779   0.285646
     5  C   -0.744771   0.266942
     6  C   -0.744772   0.266943
     7  Cl   0.575990  -0.103690
     8  Cl   0.605342  -0.112152
     9  Cl   0.575989  -0.103690
    10  Cl   0.575990  -0.103690
    11  Cl   0.605342  -0.112152
    12  Cl   0.575989  -0.103690
 Electronic spatial extent (au):  <R**2>=           4084.1620
 Charge=             -1.0000 electrons
 Dipole moment (field-independent basis, Debye):
    X=             -0.0000    Y=              0.0000    Z=              0.0000  Tot=              0.0000
 Quadrupole moment (field-independent basis, Debye-Ang):
   XX=           -143.4790   YY=           -144.8758   ZZ=           -115.6684
   XY=             -0.0000   XZ=              0.0000   YZ=              0.0000
 Traceless Quadrupole moment (field-independent basis, Debye-Ang):
   XX=             -8.8046   YY=            -10.2014   ZZ=             19.0060
   XY=             -0.0000   XZ=              0.0000   YZ=              0.0000
 Octapole moment (field-independent basis, Debye-Ang**2):
  XXX=             -0.0000  YYY=              0.0000  ZZZ=              0.0000  XYY=              0.0000
  XXY=              0.0000  XXZ=              0.0000  XZZ=             -0.0000  YZZ=              0.0000
  YYZ=              0.0000  XYZ=              0.0000
 Hexadecapole moment (field-independent basis, Debye-Ang**3):
 XXXX=          -2932.7199 YYYY=          -2961.2479 ZZZZ=           -155.2033 XXXY=             -0.0001
 XXXZ=              0.0000 YYYX=             -0.0003 YYYZ=              0.0000 ZZZX=              0.0000
 ZZZY=              0.0000 XXYY=           -985.2572 XXZZ=           -484.8825 YYZZ=           -486.4146
 XXYZ=              0.0000 YYXZ=              0.0000 ZZXY=             -0.0000
 N-N= 1.350203089081D+03 E-N=-9.814834890952D+03  KE= 2.983776086972D+03
 Symmetry A'   KE= 2.702163098174D+03
 Symmetry A"   KE= 2.816129887982D+02
 Symmetry A'   SP= 9.999999999999D-01
 Symmetry A"   SP= 2.287107033979D-14
                          Isotropic Fermi Contact Couplings
        Atom                 a.u.       MegaHertz       Gauss      10(-4) cm-1
     1  C(13)              0.07219      81.15288      28.95736      27.06969
     2  C(13)              0.06334      71.20615      25.40812      23.75181
     3  C(13)              0.06334      71.20641      25.40822      23.75190
     4  C(13)              0.07219      81.15298      28.95740      27.06972
     5  C(13)              0.06334      71.20606      25.40809      23.75179
     6  C(13)              0.06334      71.20648      25.40824      23.75192
     7  Cl(35)             0.20917      91.71325      32.72557      30.59225
     8  Cl(35)             0.20453      89.67833      31.99946      29.91347
     9  Cl(35)             0.20917      91.71334      32.72560      30.59228
    10  Cl(35)             0.20917      91.71327      32.72558      30.59226
    11  Cl(35)             0.20453      89.67838      31.99948      29.91349
    12  Cl(35)             0.20917      91.71330      32.72558      30.59226
 --------------------------------------------------------
       Center         ----  Spin Dipole Couplings  ----
                      3XX-RR        3YY-RR        3ZZ-RR
 --------------------------------------------------------
     1   Atom        0.040676     -0.013430     -0.027247
     2   Atom       -0.001795      0.034233     -0.032438
     3   Atom       -0.001795      0.034233     -0.032438
     4   Atom        0.040676     -0.013430     -0.027247
     5   Atom       -0.001795      0.034233     -0.032438
     6   Atom       -0.001795      0.034233     -0.032438
     7   Atom       -0.041451      0.221758     -0.180307
     8   Atom        0.346317     -0.173521     -0.172796
     9   Atom       -0.041451      0.221759     -0.180307
    10   Atom       -0.041451      0.221758     -0.180307
    11   Atom        0.346317     -0.173521     -0.172796
    12   Atom       -0.041452      0.221759     -0.180307
 --------------------------------------------------------
                        XY            XZ            YZ
 --------------------------------------------------------
     1   Atom        0.000000      0.000000      0.000000
     2   Atom        0.030399      0.000000      0.000000
     3   Atom       -0.030398      0.000000      0.000000
     4   Atom        0.000000      0.000000      0.000000
     5   Atom        0.030399      0.000000      0.000000
     6   Atom       -0.030398      0.000000      0.000000
     7   Atom       -0.237420      0.000000      0.000000
     8   Atom       -0.000000      0.000000      0.000000
     9   Atom        0.237420      0.000000      0.000000
    10   Atom       -0.237420      0.000000      0.000000
    11   Atom       -0.000000      0.000000      0.000000
    12   Atom        0.237420      0.000000      0.000000
 --------------------------------------------------------


 ---------------------------------------------------------------------------------
              Anisotropic Spin Dipole Couplings in Principal Axis System
 ---------------------------------------------------------------------------------

       Atom             a.u.   MegaHertz   Gauss  10(-4) cm-1        Axes

              Baa    -0.0272    -3.656    -1.305    -1.220  0.0000  0.0000  1.0000
     1 C(13)  Bbb    -0.0134    -1.802    -0.643    -0.601 -0.0000  1.0000 -0.0000
              Bcc     0.0407     5.458     1.948     1.821  1.0000  0.0000  0.0000
 
              Baa    -0.0324    -4.353    -1.553    -1.452  0.0000  0.0000  1.0000
     2 C(13)  Bbb    -0.0191    -2.565    -0.915    -0.856  0.8689 -0.4951 -0.0000
              Bcc     0.0516     6.918     2.469     2.308  0.4951  0.8689  0.0000
 
              Baa    -0.0324    -4.353    -1.553    -1.452  0.0000  0.0000  1.0000
     3 C(13)  Bbb    -0.0191    -2.565    -0.915    -0.856  0.8689  0.4951  0.0000
              Bcc     0.0516     6.918     2.469     2.308 -0.4951  0.8689  0.0000
 
              Baa    -0.0272    -3.656    -1.305    -1.220  0.0000  0.0000  1.0000
     4 C(13)  Bbb    -0.0134    -1.802    -0.643    -0.601 -0.0000  1.0000 -0.0000
              Bcc     0.0407     5.458     1.948     1.821  1.0000  0.0000  0.0000
 
              Baa    -0.0324    -4.353    -1.553    -1.452  0.0000  0.0000  1.0000
     5 C(13)  Bbb    -0.0191    -2.565    -0.915    -0.856  0.8689 -0.4951 -0.0000
              Bcc     0.0516     6.918     2.469     2.308  0.4951  0.8689  0.0000
 
              Baa    -0.0324    -4.353    -1.553    -1.452  0.0000  0.0000  1.0000
     6 C(13)  Bbb    -0.0191    -2.565    -0.915    -0.856  0.8689  0.4951  0.0000
              Bcc     0.0516     6.918     2.469     2.308 -0.4951  0.8689  0.0000
 
              Baa    -0.1813    -9.489    -3.386    -3.165  0.8616  0.5075  0.0000
     7 Cl(35) Bbb    -0.1803    -9.437    -3.367    -3.148  0.0000  0.0000  1.0000
              Bcc     0.3616    18.926     6.753     6.313 -0.5075  0.8616  0.0000
 
              Baa    -0.1735    -9.082    -3.241    -3.029  0.0000  1.0000  0.0000
     8 Cl(35) Bbb    -0.1728    -9.044    -3.227    -3.017  0.0000  0.0000  1.0000
              Bcc     0.3463    18.125     6.468     6.046  1.0000 -0.0000 -0.0000
 
              Baa    -0.1813    -9.489    -3.386    -3.165  0.8616 -0.5075 -0.0000
     9 Cl(35) Bbb    -0.1803    -9.437    -3.367    -3.148  0.0000  0.0000  1.0000
              Bcc     0.3616    18.926     6.753     6.313  0.5075  0.8616  0.0000
 
              Baa    -0.1813    -9.489    -3.386    -3.165  0.8616  0.5075  0.0000
    10 Cl(35) Bbb    -0.1803    -9.437    -3.367    -3.148  0.0000  0.0000  1.0000
              Bcc     0.3616    18.926     6.753     6.313 -0.5075  0.8616  0.0000
 
              Baa    -0.1735    -9.082    -3.241    -3.029  0.0000  1.0000  0.0000
    11 Cl(35) Bbb    -0.1728    -9.044    -3.227    -3.017  0.0000  0.0000  1.0000
              Bcc     0.3463    18.125     6.468     6.046  1.0000 -0.0000 -0.0000
 
              Baa    -0.1813    -9.489    -3.386    -3.165  0.8616 -0.5075 -0.0000
    12 Cl(35) Bbb    -0.1803    -9.437    -3.367    -3.148  0.0000  0.0000  1.0000
              Bcc     0.3616    18.926     6.753     6.313  0.5075  0.8616  0.0000
 

 ---------------------------------------------------------------------------------

 Calling FoFJK, ICntrl=      2127 FMM=F ISym2X=1 I1Cent= 0 IOpClX= 1 NMat=1 NMatS=1 NMatT=0.
 ***** Axes restored to original set *****
 -------------------------------------------------------------------
 Center     Atomic                   Forces (Hartrees/Bohr)
 Number     Number              X              Y              Z
 -------------------------------------------------------------------
      1        6           0.065437436   -0.035421918   -0.000000000
      2        6          -0.025573960   -0.053843955   -0.000000000
      3        6          -0.031098355   -0.050854867   -0.000000000
      4        6          -0.065437499    0.035421882   -0.000000000
      5        6           0.025574066    0.053843995   -0.000000000
      6        6           0.031098334    0.050854837    0.000000000
      7       17          -0.037949170   -0.023837272   -0.000000000
      8       17          -0.040184409    0.021751589   -0.000000000
      9       17          -0.000792074    0.044807661   -0.000000000
     10       17           0.037949157    0.023837279    0.000000000
     11       17           0.040184374   -0.021751578   -0.000000000
     12       17           0.000792101   -0.044807651   -0.000000000
 -------------------------------------------------------------------
 Cartesian Forces:  Max     0.065437499 RMS     0.032273075

 GradGradGradGradGradGradGradGradGradGradGradGradGradGradGradGradGradGrad
 Berny optimization.
 FormGI is forming the generalized inverse of G from B-inverse, IUseBI=4.
 Internal  Forces:  Max     0.045693745 RMS     0.016535494
 Search for a local minimum.
 Step number   1 out of a maximum of   64
 All quantities printed in internal units (Hartrees-Bohrs-Radians)
 Mixed Optimization -- RFO/linear search
 Second derivative matrix not updated -- first step.
 ITU=  0
     Eigenvalues ---    0.01840   0.01840   0.01840   0.02018   0.02019
     Eigenvalues ---    0.02105   0.02106   0.02188   0.02192   0.25000
     Eigenvalues ---    0.25000   0.25000   0.25000   0.25000   0.25000
     Eigenvalues ---    0.25000   0.25000   0.25000   0.34564   0.34564
     Eigenvalues ---    0.34564   0.34564   0.35925   0.35925   0.39564
     Eigenvalues ---    0.41027   0.42641   0.42641   0.46978   0.49238
 RFO step:  Lambda=-3.70646749D-02 EMin= 1.84000754D-02
 Linear search not attempted -- first point.
 Maximum step size (   0.300) exceeded in Quadratic search.
    -- Step size scaled by   0.981
 Iteration  1 RMS(Cart)=  0.03043194 RMS(Int)=  0.00004395
 Iteration  2 RMS(Cart)=  0.00009338 RMS(Int)=  0.00000000
 Iteration  3 RMS(Cart)=  0.00000001 RMS(Int)=  0.00000000
 ClnCor:  largest displacement from symmetrization is 2.26D-12 for atom    12.
 Variable       Old X    -DE/DX   Delta X   Delta X   Delta X     New X
                                 (Linear)    (Quad)   (Total)
    R1        2.68115  -0.02495   0.00000  -0.05283  -0.05283   2.62832
    R2        2.68115  -0.02495   0.00000  -0.05283  -0.05283   2.62833
    R3        3.21199   0.04569   0.00000   0.11313   0.11313   3.32512
    R4        2.60643   0.00453   0.00000   0.00839   0.00839   2.61482
    R5        3.23388   0.04481   0.00000   0.11488   0.11488   3.34876
    R6        2.68115  -0.02495   0.00000  -0.05283  -0.05283   2.62833
    R7        3.23388   0.04481   0.00000   0.11488   0.11488   3.34876
    R8        2.68115  -0.02495   0.00000  -0.05283  -0.05283   2.62832
    R9        3.21199   0.04569   0.00000   0.11313   0.11313   3.32512
   R10        2.60643   0.00453   0.00000   0.00839   0.00839   2.61482
   R11        3.23388   0.04481   0.00000   0.11488   0.11488   3.34876
   R12        3.23388   0.04481   0.00000   0.11488   0.11488   3.34876
    A1        2.07311   0.00171   0.00000   0.00586   0.00586   2.07897
    A2        2.10504  -0.00086   0.00000  -0.00293  -0.00293   2.10211
    A3        2.10504  -0.00086   0.00000  -0.00293  -0.00293   2.10210
    A4        2.10504  -0.00086   0.00000  -0.00293  -0.00293   2.10211
    A5        2.07575   0.00172   0.00000   0.00587   0.00587   2.08162
    A6        2.10240  -0.00086   0.00000  -0.00294  -0.00294   2.09945
    A7        2.10504  -0.00086   0.00000  -0.00293  -0.00293   2.10210
    A8        2.10240  -0.00086   0.00000  -0.00294  -0.00294   2.09946
    A9        2.07575   0.00172   0.00000   0.00587   0.00587   2.08162
   A10        2.07311   0.00171   0.00000   0.00586   0.00586   2.07897
   A11        2.10504  -0.00086   0.00000  -0.00293  -0.00293   2.10211
   A12        2.10504  -0.00086   0.00000  -0.00293  -0.00293   2.10211
   A13        2.10504  -0.00086   0.00000  -0.00293  -0.00293   2.10211
   A14        2.07575   0.00172   0.00000   0.00587   0.00587   2.08162
   A15        2.10240  -0.00086   0.00000  -0.00294  -0.00294   2.09946
   A16        2.10504  -0.00086   0.00000  -0.00293  -0.00293   2.10210
   A17        2.07575   0.00172   0.00000   0.00587   0.00587   2.08162
   A18        2.10240  -0.00086   0.00000  -0.00294  -0.00294   2.09946
    D1        0.00000   0.00000   0.00000  -0.00000   0.00000   0.00000
    D2        3.14159  -0.00000   0.00000  -0.00000   0.00000   3.14159
    D3        3.14159  -0.00000   0.00000  -0.00000   0.00000   3.14159
    D4        0.00000  -0.00000   0.00000  -0.00000   0.00000   0.00000
    D5        0.00000   0.00000   0.00000   0.00000   0.00000   0.00000
    D6        3.14159  -0.00000   0.00000   0.00000   0.00000   3.14159
    D7        3.14159   0.00000   0.00000   0.00000   0.00000   3.14159
    D8        0.00000   0.00000   0.00000   0.00000   0.00000   0.00000
    D9        0.00000  -0.00000   0.00000  -0.00000   0.00000   0.00000
   D10        3.14159  -0.00000   0.00000   0.00000   0.00000   3.14159
   D11        3.14159  -0.00000   0.00000  -0.00000   0.00000   3.14159
   D12        0.00000   0.00000   0.00000  -0.00000   0.00000   0.00000
   D13        0.00000   0.00000   0.00000   0.00000   0.00000   0.00000
   D14        3.14159   0.00000   0.00000   0.00000   0.00000   3.14159
   D15        3.14159   0.00000   0.00000   0.00000   0.00000   3.14159
   D16        0.00000   0.00000   0.00000   0.00000   0.00000   0.00000
   D17        0.00000  -0.00000   0.00000   0.00000   0.00000   0.00000
   D18        3.14159   0.00000   0.00000  -0.00000   0.00000   3.14159
   D19        3.14159  -0.00000   0.00000  -0.00000   0.00000   3.14159
   D20        0.00000  -0.00000   0.00000  -0.00000   0.00000   0.00000
   D21        0.00000  -0.00000   0.00000  -0.00000   0.00000   0.00000
   D22        3.14159  -0.00000   0.00000  -0.00000   0.00000   3.14159
   D23        3.14159  -0.00000   0.00000  -0.00000   0.00000   3.14159
   D24        0.00000  -0.00000   0.00000  -0.00000   0.00000   0.00000
         Item               Value     Threshold  Converged?
 Maximum Force            0.045694     0.000450     NO 
 RMS     Force            0.016535     0.000300     NO 
 Maximum Displacement     0.080596     0.001800     NO 
 RMS     Displacement     0.030422     0.001200     NO 
 Predicted change in Energy=-2.019370D-02
 GradGradGradGradGradGradGradGradGradGradGradGradGradGradGradGradGradGrad

                          Input orientation:                          
 ---------------------------------------------------------------------
 Center     Atomic      Atomic             Coordinates (Angstroms)
 Number     Number       Type             X           Y           Z
 ---------------------------------------------------------------------
      1          6           0       -3.201052    0.194976    0.000000
      2          6           0       -2.010512    0.914058    0.000000
      3          6           0       -0.793644    0.255375    0.000000
      4          6           0       -0.744732   -1.134615    0.000000
      5          6           0       -1.935271   -1.853696    0.000000
      6          6           0       -3.152139   -1.195013    0.000000
      7         17           0       -4.666579   -2.115215    0.000000
      8         17           0       -4.748476    1.032587    0.000000
      9         17           0       -2.068138    2.685210    0.000000
     10         17           0        0.720796    1.175577    0.000000
     11         17           0        0.802693   -1.972226    0.000000
     12         17           0       -1.877645   -3.624848    0.000000
 ---------------------------------------------------------------------
                    Distance matrix (angstroms):
                    1          2          3          4          5
     1  C    0.000000
     2  C    1.390850   0.000000
     3  C    2.408165   1.383702   0.000000
     4  C    2.793084   2.408165   1.390850   0.000000
     5  C    2.408165   2.768776   2.398227   1.390850   0.000000
     6  C    1.390850   2.398227   2.768777   2.408165   1.383702
     7  Cl   2.735828   4.028795   4.540851   4.042582   2.743799
     8  Cl   1.759578   2.740529   4.030479   4.552662   4.030478
     9  Cl   2.735829   1.772090   2.743799   4.042581   4.540850
    10  Cl   4.042582   2.743799   1.772089   2.735828   4.028795
    11  Cl   4.552662   4.030478   2.740528   1.759578   2.740529
    12  Cl   4.042581   4.540850   4.028795   2.735828   1.772090
                    6          7          8          9         10
     6  C    0.000000
     7  Cl   1.772089   0.000000
     8  Cl   2.740528   3.148868   0.000000
     9  Cl   4.028795   5.458570   3.148869   0.000000
    10  Cl   4.540851   6.312933   5.471141   3.171300   0.000000
    11  Cl   4.030479   5.471141   6.312241   5.471141   3.148868
    12  Cl   2.743799   3.171300   5.471141   6.312933   5.458570
                   11         12
    11  Cl   0.000000
    12  Cl   3.148869   0.000000
 Stoichiometry    C6Cl6(1-,2)
 Framework group  CS[SG(C6Cl6)]
 Deg. of freedom    21
 Full point group                 CS      NOp   2
 Largest Abelian subgroup         CS      NOp   2
 Largest concise Abelian subgroup C1      NOp   1
                         Standard orientation:                         
 ---------------------------------------------------------------------
 Center     Atomic      Atomic             Coordinates (Angstroms)
 Number     Number       Type             X           Y           Z
 ---------------------------------------------------------------------
      1          6           0        0.000000   -1.396542    0.000000
      2          6           0        1.199113   -0.691851    0.000000
      3          6           0        1.199114    0.691851    0.000000
      4          6           0        0.000000    1.396542    0.000000
      5          6           0       -1.199113    0.691851    0.000000
      6          6           0       -1.199114   -0.691851    0.000000
      7         17           0       -2.729285   -1.585650    0.000000
      8         17           0       -0.000000   -3.156120    0.000000
      9         17           0        2.729285   -1.585650    0.000000
     10         17           0        2.729285    1.585650    0.000000
     11         17           0        0.000000    3.156120    0.000000
     12         17           0       -2.729285    1.585650    0.000000
 ---------------------------------------------------------------------
 Rotational constants (GHZ):           0.4549074           0.4519873           0.2267213
 Standard basis: 6-311++G(d,p) (5D, 7F)
 There are   240 symmetry adapted cartesian basis functions of A'  symmetry.
 There are    84 symmetry adapted cartesian basis functions of A"  symmetry.
 There are   228 symmetry adapted basis functions of A'  symmetry.
 There are    84 symmetry adapted basis functions of A"  symmetry.
   312 basis functions,   534 primitive gaussians,   324 cartesian basis functions
    70 alpha electrons       69 beta electrons
       nuclear repulsion energy      1333.0731681958 Hartrees.
 NAtoms=   12 NActive=   12 NUniq=   12 SFac= 1.00D+00 NAtFMM=   60 NAOKFM=F Big=F
 Integral buffers will be    131072 words long.
 Raffenetti 2 integral format.
 Two-electron integral symmetry is turned on.
 One-electron integrals computed using PRISM.
 NBasis=   312 RedAO= T EigKep=  1.66D-06  NBF=   228    84
 NBsUse=   310 1.00D-06 EigRej=  2.17D-07 NBFU=   226    84
 Initial guess from the checkpoint file:  "frequency_chks/123456ClBzAnionRadical_Freq.chk"
 B after Tr=    -0.000000    0.000000    0.000000
         Rot=    0.707107   -0.000000   -0.000000   -0.707107 Ang= -90.00 deg.
 Initial guess orbital symmetries:
 Alpha Orbitals:
       Occupied  (A') (A') (A') (A') (A') (A') (A') (A') (A') (A')
                 (A') (A') (A') (A') (A') (A') (A') (A') (A') (A')
                 (A') (A') (A') (A') (A") (A") (A') (A') (A") (A")
                 (A") (A") (A') (A') (A') (A') (A') (A') (A') (A')
                 (A') (A') (A') (A') (A') (A') (A') (A') (A') (A')
                 (A") (A') (A') (A') (A') (A") (A") (A") (A") (A')
                 (A') (A') (A") (A') (A') (A") (A') (A") (A") (A')
       Virtual   (A") (A") (A') (A') (A') (A') (A') (A') (A") (A')
                 (A') (A') (A") (A") (A') (A") (A") (A') (A') (A')
                 (A') (A") (A') (A') (A") (A') (A') (A') (A') (A")
                 (A') (A") (A") (A') (A') (A') (A') (A") (A") (A')
                 (A') (A') (A') (A') (A') (A') (A") (A') (A') (A')
                 (A') (A') (A') (A') (A') (A') (A') (A') (A') (A')
                 (A") (A') (A") (A") (A') (A') (A') (A') (A") (A")
                 (A') (A') (A') (A') (A") (A') (A') (A") (A') (A")
                 (A") (A") (A") (A') (A') (A') (A') (A') (A") (A')
                 (A") (A') (A') (A") (A") (A') (A') (A") (A') (A")
                 (A') (A") (A') (A') (A') (A") (A") (A") (A') (A")
                 (A") (A') (A') (A') (A') (A') (A') (A') (A') (A')
                 (A") (A') (A') (A') (A') (A') (A") (A') (A') (A')
                 (A') (A') (A") (A') (A') (A') (A") (A") (A') (A')
                 (A") (A") (A') (A') (A') (A') (A') (A') (A') (A")
                 (A") (A') (A') (A') (A') (A") (A") (A") (A') (A')
                 (A') (A') (A") (A") (A") (A") (A") (A") (A') (A')
                 (A") (A') (A') (A') (A') (A') (A') (A') (A') (A')
                 (A') (A') (A") (A') (A') (A') (A") (A") (A") (A")
                 (A') (A") (A') (A') (A') (A') (A') (A') (A') (A')
                 (A') (A') (A') (A') (A') (A') (A') (A') (A') (A')
                 (A') (A') (A') (A') (A') (A') (A") (A") (A") (A")
                 (A") (A") (A') (A') (A') (A') (A') (A') (A') (A')
                 (A') (A') (A') (A') (A') (A') (A') (A') (A') (A')
 Beta  Orbitals:
       Occupied  (A') (A') (A') (A') (A') (A') (A') (A') (A') (A')
                 (A') (A') (A') (A') (A') (A') (A') (A') (A') (A')
                 (A') (A') (A') (A') (A") (A") (A') (A') (A") (A")
                 (A") (A") (A') (A') (A') (A') (A') (A') (A') (A')
                 (A') (A') (A') (A') (A') (A') (A') (A') (A') (A')
                 (A") (A') (A') (A') (A') (A") (A") (A") (A") (A')
                 (A') (A') (A") (A') (A') (A") (A') (A") (A")
       Virtual   (A') (A") (A") (A') (A') (A') (A') (A') (A') (A")
                 (A') (A') (A') (A") (A") (A') (A") (A") (A') (A')
                 (A') (A") (A") (A') (A') (A') (A') (A') (A') (A")
                 (A") (A') (A") (A') (A') (A') (A') (A") (A") (A')
                 (A') (A') (A') (A') (A') (A') (A') (A") (A') (A')
                 (A') (A') (A') (A') (A') (A') (A') (A') (A') (A')
                 (A') (A") (A') (A") (A") (A') (A') (A') (A') (A')
                 (A") (A") (A') (A') (A') (A") (A') (A') (A") (A")
                 (A') (A") (A") (A") (A') (A') (A') (A') (A') (A")
                 (A') (A") (A') (A') (A") (A") (A') (A') (A") (A')
                 (A') (A") (A") (A') (A') (A") (A') (A") (A") (A')
                 (A") (A") (A') (A') (A') (A') (A') (A') (A') (A')
                 (A') (A') (A") (A') (A') (A') (A') (A") (A') (A')
                 (A') (A') (A') (A") (A') (A') (A') (A") (A") (A')
                 (A') (A") (A") (A') (A') (A') (A') (A') (A') (A')
                 (A") (A") (A') (A') (A') (A') (A") (A") (A") (A')
                 (A') (A') (A') (A") (A") (A") (A") (A") (A") (A')
                 (A') (A") (A') (A') (A') (A') (A') (A') (A') (A')
                 (A') (A') (A') (A") (A') (A') (A') (A") (A") (A")
                 (A") (A') (A") (A') (A') (A') (A') (A') (A') (A')
                 (A') (A') (A') (A') (A') (A') (A') (A') (A') (A')
                 (A') (A') (A') (A') (A') (A') (A') (A") (A") (A")
                 (A") (A") (A") (A') (A') (A') (A') (A') (A') (A')
                 (A') (A') (A') (A') (A') (A') (A') (A') (A') (A')
                 (A')
 Initial guess <Sx>= 0.0000 <Sy>= 0.0000 <Sz>= 0.5000 <S**2>= 0.7516 S= 0.5008
 ExpMin= 4.38D-02 ExpMax= 1.06D+05 ExpMxC= 3.62D+03 IAcc=3 IRadAn=         5 AccDes= 0.00D+00
 Harris functional with IExCor= 1009 and IRadAn=       5 diagonalized for initial guess.
 HarFok:  IExCor= 1009 AccDes= 0.00D+00 IRadAn=         5 IDoV= 1 UseB2=F ITyADJ=14
 ICtDFT=  3500011 ScaDFX=  1.000000  1.000000  1.000000  1.000000
 FoFCou: FMM=F IPFlag=           0 FMFlag=      100000 FMFlg1=           0
         NFxFlg=           0 DoJE=T BraDBF=F KetDBF=T FulRan=T
         wScrn=  0.000000 ICntrl=       500 IOpCl=  0 I1Cent=   200000004 NGrid=           0
         NMat0=    1 NMatS0=      1 NMatT0=    0 NMatD0=    1 NMtDS0=    0 NMtDT0=    0
 Petite list used in FoFCou.
 Requested convergence on RMS density matrix=1.00D-08 within 128 cycles.
 Requested convergence on MAX density matrix=1.00D-06.
 Requested convergence on             energy=1.00D-06.
 No special actions if energy rises.
 SCF Done:  E(UM062X) =  -2989.78555383     A.U. after   15 cycles
            NFock= 15  Conv=0.43D-08     -V/T= 2.0021
 <Sx>= 0.0000 <Sy>= 0.0000 <Sz>= 0.5000 <S**2>= 0.7516 S= 0.5008
 <L.S>=  0.00000000000    
 Annihilation of the first spin contaminant:
 S**2 before annihilation     0.7516,   after     0.7500
 Calling FoFJK, ICntrl=      2127 FMM=F ISym2X=1 I1Cent= 0 IOpClX= 1 NMat=1 NMatS=1 NMatT=0.
 ***** Axes restored to original set *****
 -------------------------------------------------------------------
 Center     Atomic                   Forces (Hartrees/Bohr)
 Number     Number              X              Y              Z
 -------------------------------------------------------------------
      1        6           0.026971262   -0.014599570   -0.000000000
      2        6          -0.004564518   -0.022050660   -0.000000000
      3        6          -0.015966666   -0.015879139   -0.000000000
      4        6          -0.026971252    0.014599557    0.000000000
      5        6           0.004564526    0.022050661    0.000000000
      6        6           0.015966653    0.015879149   -0.000000000
      7       17          -0.014978790   -0.010655412   -0.000000000
      8       17          -0.017524810    0.009486132    0.000000000
      9       17           0.000731113    0.018367500    0.000000000
     10       17           0.014978798    0.010655409   -0.000000000
     11       17           0.017524811   -0.009486121   -0.000000000
     12       17          -0.000731127   -0.018367507   -0.000000000
 -------------------------------------------------------------------
 Cartesian Forces:  Max     0.026971262 RMS     0.012969304

 GradGradGradGradGradGradGradGradGradGradGradGradGradGradGradGradGradGrad
 Berny optimization.
 Using GEDIIS/GDIIS optimizer.
 FormGI is forming the generalized inverse of G from B-inverse, IUseBI=4.
 Internal  Forces:  Max     0.019927510 RMS     0.006689562
 Search for a local minimum.
 Step number   2 out of a maximum of   64
 All quantities printed in internal units (Hartrees-Bohrs-Radians)
 Mixed Optimization -- RFO/linear search
 Update second derivatives using D2CorX and points    1    2
 DE= -2.52D-02 DEPred=-2.02D-02 R= 1.25D+00
 TightC=F SS=  1.41D+00  RLast= 3.00D-01 DXNew= 5.0454D-01 9.0000D-01
 Trust test= 1.25D+00 RLast= 3.00D-01 DXMaxT set to 5.05D-01
 ITU=  1  0
 Use linear search instead of GDIIS.
     Eigenvalues ---    0.01840   0.01840   0.01840   0.02017   0.02017
     Eigenvalues ---    0.02104   0.02104   0.02190   0.02191   0.22118
     Eigenvalues ---    0.25000   0.25000   0.25000   0.25000   0.25000
     Eigenvalues ---    0.25000   0.25000   0.25004   0.26350   0.34564
     Eigenvalues ---    0.34564   0.34564   0.35459   0.35925   0.39522
     Eigenvalues ---    0.40972   0.42641   0.42679   0.46924   0.49982
 RFO step:  Lambda=-9.88907622D-04 EMin= 1.84000754D-02
 Quartic linear search produced a step of  0.72764.
 Iteration  1 RMS(Cart)=  0.02621511 RMS(Int)=  0.00013701
 Iteration  2 RMS(Cart)=  0.00032080 RMS(Int)=  0.00000006
 Iteration  3 RMS(Cart)=  0.00000006 RMS(Int)=  0.00000000
 ClnCor:  largest displacement from symmetrization is 5.13D-12 for atom    11.
 Variable       Old X    -DE/DX   Delta X   Delta X   Delta X     New X
                                 (Linear)    (Quad)   (Total)
    R1        2.62832  -0.00709  -0.03844   0.01054  -0.02790   2.60043
    R2        2.62833  -0.00709  -0.03844   0.01054  -0.02790   2.60043
    R3        3.32512   0.01993   0.08232   0.01111   0.09343   3.41855
    R4        2.61482  -0.00375   0.00611  -0.01934  -0.01323   2.60159
    R5        3.34876   0.01833   0.08359   0.00548   0.08907   3.43784
    R6        2.62833  -0.00709  -0.03844   0.01054  -0.02790   2.60043
    R7        3.34876   0.01833   0.08359   0.00548   0.08907   3.43783
    R8        2.62832  -0.00709  -0.03844   0.01054  -0.02790   2.60043
    R9        3.32512   0.01993   0.08232   0.01111   0.09343   3.41855
   R10        2.61482  -0.00375   0.00611  -0.01934  -0.01323   2.60159
   R11        3.34876   0.01833   0.08359   0.00548   0.08907   3.43784
   R12        3.34876   0.01833   0.08359   0.00548   0.08907   3.43783
    A1        2.07897   0.00142   0.00426   0.00535   0.00961   2.08859
    A2        2.10211  -0.00071  -0.00213  -0.00267  -0.00481   2.09730
    A3        2.10210  -0.00071  -0.00213  -0.00267  -0.00480   2.09730
    A4        2.10211  -0.00071  -0.00213  -0.00267  -0.00481   2.09730
    A5        2.08162   0.00258   0.00427   0.01329   0.01757   2.09919
    A6        2.09945  -0.00187  -0.00214  -0.01062  -0.01276   2.08669
    A7        2.10210  -0.00071  -0.00213  -0.00267  -0.00481   2.09730
    A8        2.09946  -0.00187  -0.00214  -0.01062  -0.01276   2.08669
    A9        2.08162   0.00258   0.00427   0.01330   0.01757   2.09919
   A10        2.07897   0.00142   0.00426   0.00535   0.00961   2.08859
   A11        2.10211  -0.00071  -0.00213  -0.00267  -0.00481   2.09730
   A12        2.10211  -0.00071  -0.00213  -0.00267  -0.00481   2.09730
   A13        2.10211  -0.00071  -0.00213  -0.00267  -0.00481   2.09730
   A14        2.08162   0.00258   0.00427   0.01330   0.01757   2.09919
   A15        2.09946  -0.00187  -0.00214  -0.01062  -0.01276   2.08669
   A16        2.10210  -0.00071  -0.00213  -0.00267  -0.00481   2.09730
   A17        2.08162   0.00258   0.00427   0.01330   0.01757   2.09919
   A18        2.09946  -0.00187  -0.00214  -0.01062  -0.01276   2.08669
    D1        0.00000   0.00000   0.00000   0.00000   0.00000   0.00000
    D2        3.14159   0.00000   0.00000   0.00000   0.00000   3.14159
    D3        3.14159   0.00000   0.00000   0.00000   0.00000   3.14159
    D4        0.00000   0.00000   0.00000   0.00000   0.00000   0.00000
    D5        0.00000   0.00000   0.00000  -0.00000   0.00000   0.00000
    D6        3.14159  -0.00000   0.00000  -0.00000   0.00000   3.14159
    D7        3.14159  -0.00000   0.00000  -0.00000   0.00000   3.14159
    D8        0.00000  -0.00000   0.00000  -0.00000   0.00000   0.00000
    D9        0.00000   0.00000   0.00000   0.00000   0.00000   0.00000
   D10        3.14159  -0.00000   0.00000  -0.00000   0.00000   3.14159
   D11        3.14159   0.00000   0.00000   0.00000   0.00000   3.14159
   D12        0.00000   0.00000   0.00000  -0.00000   0.00000   0.00000
   D13        0.00000  -0.00000   0.00000  -0.00000   0.00000   0.00000
   D14        3.14159  -0.00000   0.00000  -0.00000   0.00000   3.14159
   D15        3.14159   0.00000   0.00000  -0.00000   0.00000   3.14159
   D16        0.00000  -0.00000   0.00000  -0.00000   0.00000   0.00000
   D17        0.00000  -0.00000   0.00000  -0.00000   0.00000   0.00000
   D18        3.14159  -0.00000   0.00000  -0.00000   0.00000   3.14159
   D19        3.14159   0.00000   0.00000  -0.00000   0.00000   3.14159
   D20        0.00000  -0.00000   0.00000  -0.00000   0.00000   0.00000
   D21        0.00000   0.00000   0.00000   0.00000   0.00000   0.00000
   D22        3.14159   0.00000   0.00000   0.00000   0.00000   3.14159
   D23        3.14159   0.00000   0.00000   0.00000   0.00000   3.14159
   D24        0.00000   0.00000   0.00000   0.00000   0.00000   0.00000
         Item               Value     Threshold  Converged?
 Maximum Force            0.019928     0.000450     NO 
 RMS     Force            0.006690     0.000300     NO 
 Maximum Displacement     0.071415     0.001800     NO 
 RMS     Displacement     0.026304     0.001200     NO 
 Predicted change in Energy=-5.193129D-03
 GradGradGradGradGradGradGradGradGradGradGradGradGradGradGradGradGradGrad

                          Input orientation:                          
 ---------------------------------------------------------------------
 Center     Atomic      Atomic             Coordinates (Angstroms)
 Number     Number       Type             X           Y           Z
 ---------------------------------------------------------------------
      1          6           0       -3.186374    0.187031    0.000000
      2          6           0       -2.011904    0.904132    0.000000
      3          6           0       -0.801193    0.248782    0.000000
      4          6           0       -0.759409   -1.126670    0.000000
      5          6           0       -1.933880   -1.843771    0.000000
      6          6           0       -3.144590   -1.188421    0.000000
      7         17           0       -4.687129   -2.152863    0.000000
      8         17           0       -4.777278    1.048179    0.000000
      9         17           0       -2.047855    2.723001    0.000000
     10         17           0        0.741346    1.213224    0.000000
     11         17           0        0.831495   -1.987817    0.000000
     12         17           0       -1.897929   -3.662640    0.000000
 ---------------------------------------------------------------------
                    Distance matrix (angstroms):
                    1          2          3          4          5
     1  C    0.000000
     2  C    1.376087   0.000000
     3  C    2.385980   1.376700   0.000000
     4  C    2.759704   2.385980   1.376087   0.000000
     5  C    2.385980   2.749011   2.379445   1.376087   0.000000
     6  C    1.376087   2.379445   2.749011   2.385980   1.376700
     7  Cl   2.779815   4.062272   4.568194   4.059563   2.770545
     8  Cl   1.809019   2.769123   4.055648   4.568723   4.055648
     9  Cl   2.779815   1.819224   2.770546   4.059564   4.568194
    10  Cl   4.059564   2.770545   1.819224   2.779815   4.062272
    11  Cl   4.568723   4.055648   2.769124   1.809019   2.769123
    12  Cl   4.059564   4.568194   4.062272   2.779815   1.819224
                    6          7          8          9         10
     6  C    0.000000
     7  Cl   1.819224   0.000000
     8  Cl   2.769124   3.202310   0.000000
     9  Cl   4.062272   5.544350   3.202309   0.000000
    10  Cl   4.568194   6.387401   5.521091   3.171603   0.000000
    11  Cl   4.055648   5.521091   6.377742   5.521092   3.202310
    12  Cl   2.770546   3.171603   5.521092   6.387401   5.544350
                   11         12
    11  Cl   0.000000
    12  Cl   3.202309   0.000000
 Stoichiometry    C6Cl6(1-,2)
 Framework group  CS[SG(C6Cl6)]
 Deg. of freedom    21
 Full point group                 CS      NOp   2
 Largest Abelian subgroup         CS      NOp   2
 Largest concise Abelian subgroup C1      NOp   1
                         Standard orientation:                         
 ---------------------------------------------------------------------
 Center     Atomic      Atomic             Coordinates (Angstroms)
 Number     Number       Type             X           Y           Z
 ---------------------------------------------------------------------
      1          6           0        0.000000   -1.379852    0.000000
      2          6           0        1.189722   -0.688350    0.000000
      3          6           0        1.189722    0.688350    0.000000
      4          6           0       -0.000000    1.379852    0.000000
      5          6           0       -1.189722    0.688350    0.000000
      6          6           0       -1.189722   -0.688350    0.000000
      7         17           0       -2.772175   -1.585802    0.000000
      8         17           0        0.000001   -3.188871    0.000000
      9         17           0        2.772175   -1.585802    0.000000
     10         17           0        2.772175    1.585802    0.000000
     11         17           0       -0.000001    3.188871    0.000000
     12         17           0       -2.772175    1.585801    0.000000
 ---------------------------------------------------------------------
 Rotational constants (GHZ):           0.4466914           0.4421988           0.2222169
 Standard basis: 6-311++G(d,p) (5D, 7F)
 There are   240 symmetry adapted cartesian basis functions of A'  symmetry.
 There are    84 symmetry adapted cartesian basis functions of A"  symmetry.
 There are   228 symmetry adapted basis functions of A'  symmetry.
 There are    84 symmetry adapted basis functions of A"  symmetry.
   312 basis functions,   534 primitive gaussians,   324 cartesian basis functions
    70 alpha electrons       69 beta electrons
       nuclear repulsion energy      1319.4378297573 Hartrees.
 NAtoms=   12 NActive=   12 NUniq=   12 SFac= 1.00D+00 NAtFMM=   60 NAOKFM=F Big=F
 Integral buffers will be    131072 words long.
 Raffenetti 2 integral format.
 Two-electron integral symmetry is turned on.
 One-electron integrals computed using PRISM.
 NBasis=   312 RedAO= T EigKep=  1.68D-06  NBF=   228    84
 NBsUse=   310 1.00D-06 EigRej=  1.99D-07 NBFU=   226    84
 Initial guess from the checkpoint file:  "frequency_chks/123456ClBzAnionRadical_Freq.chk"
 B after Tr=     0.000000   -0.000000    0.000000
         Rot=    1.000000   -0.000000   -0.000000   -0.000000 Ang=  -0.00 deg.
 Initial guess orbital symmetries:
 Alpha Orbitals:
       Occupied  (A') (A') (A') (A') (A') (A') (A') (A') (A') (A')
                 (A') (A') (A') (A') (A') (A') (A') (A') (A') (A')
                 (A') (A') (A') (A') (A") (A") (A') (A') (A") (A")
                 (A") (A") (A') (A') (A') (A') (A') (A') (A') (A')
                 (A') (A') (A') (A') (A') (A') (A') (A') (A') (A')
                 (A") (A') (A') (A') (A') (A") (A") (A") (A") (A')
                 (A') (A') (A") (A') (A') (A") (A') (A") (A") (A')
       Virtual   (A") (A") (A') (A') (A') (A') (A') (A') (A') (A")
                 (A') (A') (A") (A") (A') (A") (A") (A') (A') (A')
                 (A') (A') (A') (A") (A") (A') (A') (A') (A') (A')
                 (A") (A") (A') (A") (A') (A") (A") (A') (A') (A')
                 (A') (A') (A') (A') (A') (A') (A") (A') (A') (A')
                 (A') (A') (A') (A') (A') (A') (A') (A') (A') (A")
                 (A') (A') (A") (A") (A') (A') (A') (A') (A') (A')
[...]
    R7        3.43554  -0.00001   0.00000  -0.00034  -0.00034   3.43520
    R8        2.60430  -0.00006   0.00000  -0.00015  -0.00015   2.60415
    R9        3.43601  -0.00004   0.00000   0.00031   0.00031   3.43632
   R10        2.60383   0.00018   0.00000   0.00046   0.00046   2.60429
   R11        3.43554  -0.00001   0.00000  -0.00034  -0.00034   3.43520
   R12        3.43554  -0.00001   0.00000  -0.00034  -0.00034   3.43520
    A1        2.09385   0.00012   0.00000   0.00079   0.00079   2.09463
    A2        2.09467  -0.00006   0.00000  -0.00039  -0.00039   2.09428
    A3        2.09467  -0.00006   0.00000  -0.00039  -0.00039   2.09428
    A4        2.09467  -0.00006   0.00000  -0.00039  -0.00039   2.09428
    A5        2.09424   0.00000   0.00000   0.00025   0.00025   2.09449
    A6        2.09428   0.00006   0.00000   0.00014   0.00014   2.09442
    A7        2.09467  -0.00006   0.00000  -0.00039  -0.00039   2.09428
    A8        2.09428   0.00006   0.00000   0.00014   0.00014   2.09442
    A9        2.09424   0.00000   0.00000   0.00025   0.00025   2.09449
   A10        2.09385   0.00012   0.00000   0.00079   0.00079   2.09463
   A11        2.09467  -0.00006   0.00000  -0.00039  -0.00039   2.09428
   A12        2.09467  -0.00006   0.00000  -0.00039  -0.00039   2.09428
   A13        2.09467  -0.00006   0.00000  -0.00039  -0.00039   2.09428
   A14        2.09424   0.00000   0.00000   0.00025   0.00025   2.09449
   A15        2.09428   0.00006   0.00000   0.00014   0.00014   2.09442
   A16        2.09467  -0.00006   0.00000  -0.00039  -0.00039   2.09428
   A17        2.09424   0.00000   0.00000   0.00025   0.00025   2.09449
   A18        2.09428   0.00006   0.00000   0.00014   0.00014   2.09442
    D1        0.00000   0.00000   0.00000  -0.00000   0.00000   0.00000
    D2        3.14159  -0.00000   0.00000   0.00000   0.00000   3.14159
    D3        3.14159  -0.00000   0.00000  -0.00000   0.00000   3.14159
    D4        0.00000  -0.00000   0.00000   0.00000   0.00000   0.00000
    D5        0.00000   0.00000   0.00000   0.00000   0.00000   0.00000
    D6        3.14159   0.00000   0.00000  -0.00000   0.00000   3.14159
    D7        3.14159  -0.00000   0.00000  -0.00000   0.00000   3.14159
    D8        0.00000  -0.00000   0.00000  -0.00000   0.00000   0.00000
    D9        0.00000  -0.00000   0.00000   0.00000   0.00000   0.00000
   D10        3.14159   0.00000   0.00000  -0.00000   0.00000   3.14159
   D11        3.14159   0.00000   0.00000   0.00000   0.00000   3.14159
   D12        0.00000   0.00000   0.00000  -0.00000   0.00000   0.00000
   D13        0.00000  -0.00000   0.00000  -0.00000   0.00000   0.00000
   D14        3.14159   0.00000   0.00000  -0.00000   0.00000   3.14159
   D15        3.14159  -0.00000   0.00000   0.00000   0.00000   3.14159
   D16        0.00000   0.00000   0.00000   0.00000   0.00000   0.00000
   D17        0.00000  -0.00000   0.00000  -0.00000   0.00000   0.00000
   D18        3.14159   0.00000   0.00000  -0.00000   0.00000   3.14159
   D19        3.14159  -0.00000   0.00000   0.00000   0.00000   3.14159
   D20        0.00000  -0.00000   0.00000  -0.00000   0.00000   0.00000
   D21        0.00000   0.00000   0.00000   0.00000   0.00000   0.00000
   D22        3.14159  -0.00000   0.00000   0.00000   0.00000   3.14159
   D23        3.14159  -0.00000   0.00000   0.00000   0.00000   3.14159
   D24        0.00000  -0.00000   0.00000   0.00000   0.00000   0.00000
         Item               Value     Threshold  Converged?
 Maximum Force            0.000185     0.000450     YES
 RMS     Force            0.000053     0.000300     YES
 Maximum Displacement     0.000645     0.001800     YES
 RMS     Displacement     0.000245     0.001200     YES
 Predicted change in Energy=-2.974770D-07
 Optimization completed.
    -- Stationary point found.
                           ----------------------------
                           !   Optimized Parameters   !
                           ! (Angstroms and Degrees)  !
 --------------------------                            --------------------------
 ! Name  Definition              Value          Derivative Info.                !
 --------------------------------------------------------------------------------
 ! R1    R(1,2)                  1.3781         -DE/DX =   -0.0001              !
 ! R2    R(1,6)                  1.3781         -DE/DX =   -0.0001              !
 ! R3    R(1,8)                  1.8183         -DE/DX =    0.0                 !
 ! R4    R(2,3)                  1.3779         -DE/DX =    0.0002              !
 ! R5    R(2,9)                  1.818          -DE/DX =    0.0                 !
 ! R6    R(3,4)                  1.3781         -DE/DX =   -0.0001              !
 ! R7    R(3,10)                 1.818          -DE/DX =    0.0                 !
 ! R8    R(4,5)                  1.3781         -DE/DX =   -0.0001              !
 ! R9    R(4,11)                 1.8183         -DE/DX =    0.0                 !
 ! R10   R(5,6)                  1.3779         -DE/DX =    0.0002              !
 ! R11   R(5,12)                 1.818          -DE/DX =    0.0                 !
 ! R12   R(6,7)                  1.818          -DE/DX =    0.0                 !
 ! A1    A(2,1,6)              119.9687         -DE/DX =    0.0001              !
 ! A2    A(2,1,8)              120.0157         -DE/DX =   -0.0001              !
 ! A3    A(6,1,8)              120.0157         -DE/DX =   -0.0001              !
 ! A4    A(1,2,3)              120.0157         -DE/DX =   -0.0001              !
 ! A5    A(1,2,9)              119.991          -DE/DX =    0.0                 !
 ! A6    A(3,2,9)              119.9934         -DE/DX =    0.0001              !
 ! A7    A(2,3,4)              120.0157         -DE/DX =   -0.0001              !
 ! A8    A(2,3,10)             119.9934         -DE/DX =    0.0001              !
 ! A9    A(4,3,10)             119.991          -DE/DX =    0.0                 !
 ! A10   A(3,4,5)              119.9687         -DE/DX =    0.0001              !
 ! A11   A(3,4,11)             120.0157         -DE/DX =   -0.0001              !
 ! A12   A(5,4,11)             120.0157         -DE/DX =   -0.0001              !
 ! A13   A(4,5,6)              120.0157         -DE/DX =   -0.0001              !
 ! A14   A(4,5,12)             119.991          -DE/DX =    0.0                 !
 ! A15   A(6,5,12)             119.9934         -DE/DX =    0.0001              !
 ! A16   A(1,6,5)              120.0157         -DE/DX =   -0.0001              !
 ! A17   A(1,6,7)              119.991          -DE/DX =    0.0                 !
 ! A18   A(5,6,7)              119.9934         -DE/DX =    0.0001              !
 ! D1    D(6,1,2,3)              0.0            -DE/DX =    0.0                 !
 ! D2    D(6,1,2,9)            180.0            -DE/DX =    0.0                 !
 ! D3    D(8,1,2,3)            180.0            -DE/DX =    0.0                 !
 ! D4    D(8,1,2,9)              0.0            -DE/DX =    0.0                 !
 ! D5    D(2,1,6,5)              0.0            -DE/DX =    0.0                 !
 ! D6    D(2,1,6,7)            180.0            -DE/DX =    0.0                 !
 ! D7    D(8,1,6,5)            180.0            -DE/DX =    0.0                 !
 ! D8    D(8,1,6,7)              0.0            -DE/DX =    0.0                 !
 ! D9    D(1,2,3,4)              0.0            -DE/DX =    0.0                 !
 ! D10   D(1,2,3,10)           180.0            -DE/DX =    0.0                 !
 ! D11   D(9,2,3,4)            180.0            -DE/DX =    0.0                 !
 ! D12   D(9,2,3,10)             0.0            -DE/DX =    0.0                 !
 ! D13   D(2,3,4,5)              0.0            -DE/DX =    0.0                 !
 ! D14   D(2,3,4,11)           180.0            -DE/DX =    0.0                 !
 ! D15   D(10,3,4,5)           180.0            -DE/DX =    0.0                 !
 ! D16   D(10,3,4,11)            0.0            -DE/DX =    0.0                 !
 ! D17   D(3,4,5,6)              0.0            -DE/DX =    0.0                 !
 ! D18   D(3,4,5,12)           180.0            -DE/DX =    0.0                 !
 ! D19   D(11,4,5,6)           180.0            -DE/DX =    0.0                 !
 ! D20   D(11,4,5,12)            0.0            -DE/DX =    0.0                 !
 ! D21   D(4,5,6,1)              0.0            -DE/DX =    0.0                 !
 ! D22   D(4,5,6,7)            180.0            -DE/DX =    0.0                 !
 ! D23   D(12,5,6,1)           180.0            -DE/DX =    0.0                 !
 ! D24   D(12,5,6,7)             0.0            -DE/DX =    0.0                 !
 --------------------------------------------------------------------------------
 GradGradGradGradGradGradGradGradGradGradGradGradGradGradGradGradGradGrad


 ----------------------------------------------------------------------

 Electric dipole moment (input orientation):
 (Debye = 10**-18 statcoulomb cm , SI units = C m)
                  (au)            (Debye)         (10**-30 SI)
   Tot        0.000000D+00      0.000000D+00      0.000000D+00
   x          0.000000D+00      0.000000D+00      0.000000D+00
   y          0.000000D+00      0.000000D+00      0.000000D+00
   z          0.000000D+00      0.000000D+00      0.000000D+00

 Dipole polarizability, Alpha (input orientation).
 (esu units = cm**3 , SI units = C**2 m**2 J**-1)
 Alpha(0;0):
               (au)            (10**-24 esu)      (10**-40 SI)
   iso        0.270384D+03      0.400668D+02      0.445803D+02
   aniso      0.276459D+03      0.409670D+02      0.455819D+02
   xx         0.362582D+03      0.537292D+02      0.597818D+02
   yx        -0.696304D-01     -0.103182D-01     -0.114805D-01
   yy         0.362491D+03      0.537157D+02      0.597668D+02
   zx         0.000000D+00      0.000000D+00      0.000000D+00
   zy         0.000000D+00      0.000000D+00      0.000000D+00
   zz         0.860781D+02      0.127555D+02      0.141924D+02

 ----------------------------------------------------------------------

 Dipole orientation:
     6         -4.19786503          2.94646714          3.16968146
     6         -3.35207403          2.35280933          0.77916194
     6         -1.23512075          0.86692704          0.47814798
     6          0.03742284         -0.02626696          2.56745729
     6         -0.80836821          0.56739089          4.95797687
     6         -2.92532150          2.05327318          5.25899076
    17         -4.04006739          2.83570951          8.41304603
    17         -6.99138904          4.90723211          3.56689825
    17         -5.02990988          3.53047658         -1.97781049
    17         -0.12037479          0.08449066         -2.67590735
    17          2.83094687         -1.98703195          2.17024046
    17          0.86946758         -0.61027633          7.71494929

 Electric dipole moment (dipole orientation):
 (Debye = 10**-18 statcoulomb cm , SI units = C m)
                  (au)            (Debye)         (10**-30 SI)
   Tot        0.000000D+00      0.000000D+00      0.000000D+00
   x          0.000000D+00      0.000000D+00      0.000000D+00
   y          0.000000D+00      0.000000D+00      0.000000D+00
   z          0.000000D+00      0.000000D+00      0.000000D+00

 Dipole polarizability, Alpha (dipole orientation).
 (esu units = cm**3 , SI units = C**2 m**2 J**-1)
 Alpha(0;0):
               (au)            (10**-24 esu)      (10**-40 SI)
   iso        0.270384D+03      0.400668D+02      0.445803D+02
   aniso      0.276459D+03      0.409670D+02      0.455819D+02
   xx         0.271345D+03      0.402091D+02      0.447387D+02
   yx        -0.130038D+03     -0.192696D+02     -0.214404D+02
   yy         0.177351D+03      0.262807D+02      0.292413D+02
   zx        -0.156272D-01     -0.231571D-02     -0.257658D-02
   zy         0.109687D-01      0.162539D-02      0.180849D-02
   zz         0.362456D+03      0.537104D+02      0.597609D+02

 ----------------------------------------------------------------------
 1\1\GINC-SH03-08N27\Freq\UM062X\6-311++G(d,p)\C6Cl6(1-,2)\JLAPIER\09-D
 ec-2025\0\\#N Geom=AllCheck Guess=TCheck SCRF=Check GenChk UM062X/6-31
 1++G(d,p) Freq\\6-Chloro-Benzene Anion Radical (123456)\\-1,2\C,-3.185
 0429485,0.186310939,0.\C,-2.0107175451,0.9075726526,0.\C,-0.798961568,
 0.2516565628,0.\C,-0.7607403754,-1.1259492883,0.\C,-1.9350658184,-1.84
 72110107,0.\C,-3.1468217778,-1.1912948864,0.\Cl,-4.6955977513,-2.14337
 15203,0.\Cl,-4.7840717652,1.0518555446,0.\Cl,-2.0604310405,2.724901922
 9,0.\Cl,0.749814458,1.2037331983,0.\Cl,0.8382884719,-1.9914938869,0.\C
 l,-1.8853523524,-3.6645402508,0.\\Version=ES64L-G16RevB.01\State=2-A'\
 HF=-2989.7913045\S2=0.751908\S2-1=0.\S2A=0.750004\RMSD=1.035e-09\RMSF=
 1.037e-04\ZeroPoint=0.0360443\Thermal=0.0465409\Dipole=-0.0000003,-0.0
 000004,0.\DipoleDeriv=3.4302148,-2.6600141,0.,-2.6600141,-0.0441134,0.
 ,0.,0.,0.0010623,-1.480416,-0.1769177,0.,-0.1748594,4.8652705,0.,0.,0.
 ,0.0010223,3.1290785,2.8354433,0.,2.8333847,0.2557758,0.,0.,0.,0.00102
 23,3.4302143,-2.6600146,0.,-2.6600144,-0.0441129,0.,0.,0.,0.0010623,-1
 .4804156,-0.1769174,0.,-0.1748587,4.8652701,0.,0.,0.,0.0010223,3.12907
 81,2.8354432,0.,2.8333846,0.2557762,0.,0.,0.,0.0010223,-2.7145835,-1.6
 929371,0.,-1.6935677,-1.0024206,0.,0.,0.,-0.1681249,-2.9003494,1.59164
 48,0.,1.5916452,-0.8214517,0.,0.,0.,-0.1668569,0.0360558,0.1027806,0.,
 0.1034115,-3.7530608,0.,0.,0.,-0.168125,-2.714584,-1.6929371,0.,-1.693
 5678,-1.0024207,0.,0.,0.,-0.168125,-2.9003491,1.5916455,0.,1.5916451,-
 0.8214521,0.,0.,0.,-0.1668569,0.036056,0.1027805,0.,0.1034109,-3.75306
 03,0.,0.,0.,-0.168125\Polar=362.5824056,-0.0696304,362.4914736,0.,0.,8
 6.0780611\Quadrupole=-6.998332,-6.995983,13.994315,0.0017993,0.,0.\PG=
 CS [SG(C6Cl6)]\NImag=4\\0.40238961,0.14787342,0.59553166,0.,0.,0.09522
 505,-0.25706876,-0.10869692,0.,0.67560555,-0.11732445,-0.14207987,0.,0
 .00977684,0.32150205,0.,0.,-0.04314919,0.,0.,0.09469464,-0.07266865,0.
 00173121,0.,-0.26817065,0.11012305,0.,0.41842038,-0.01092617,0.0976849
 2,0.,0.10153892,-0.12994147,0.,-0.15818196,0.57868712,0.,0.,0.00285715
 ,0.,0.,-0.04306828,0.,0.,0.09469464,-0.09503354,0.00119303,0.,0.050962
 01,0.08247015,0.,-0.07298419,0.01152239,0.,0.40238955,0.00119305,-0.09
 347527,0.,0.06981276,-0.02594574,0.,0.00289486,-0.32616433,0.,0.147873
 37,0.59553154,0.,0.,-0.00693616,0.,0.,0.00285715,0.,0.,-0.04314919,0.,
 0.,0.09522505,0.05096202,0.06981277,0.,-0.09287675,0.00005349,0.,0.059
 16849,-0.06518634,0.,-0.25706871,-0.10869686,0.,0.67560549,0.08247012,
 -0.02594572,0.,0.00005350,-0.09588131,0.,-0.07775271,-0.03418009,0.,-0
 .11732440,-0.14207985,0.,0.00977678,0.32150209,0.,0.,0.00285714,0.,0.,
 -0.00690826,0.,0.,0.00283484,0.,0.,-0.04314919,0.,0.,0.09469465,-0.072
 98420,0.00289486,0.,0.05916849,-0.07775271,0.,-0.09503198,-0.00135401,
 0.,-0.07266863,0.00173120,0.,-0.26817066,0.11012306,0.,0.41842042,0.01
 152239,-0.32616441,0.,-0.06518634,-0.03418010,0.,-0.00135401,-0.093726
 07,0.,-0.01092616,0.09768492,0.,0.10153892,-0.12994150,0.,-0.15818194,
 0.57868723,0.,0.,-0.04314918,0.,0.,0.00283484,0.,0.,-0.00690826,0.,0.,
 0.00285714,0.,0.,-0.04306829,0.,0.,0.09469465,-0.01281863,-0.03217746,
 0.,-0.01858614,0.03627853,0.,0.05043462,0.03039583,0.,0.01743707,-0.03
 077822,0.,-0.05071687,-0.00247826,0.,-0.00929568,0.01333811,0.,0.07453
 141,-0.02176060,-0.03265227,0.,-0.01241396,0.01474008,0.,0.03042114,0.
 01968370,0.,0.01783396,-0.02150882,0.,-0.01299550,0.00482101,0.,0.0133
 2885,-0.02259831,0.,0.01656069,0.05797211,0.,0.,-0.00395546,0.,0.,-0.0
 0014452,0.,0.,0.01046237,0.,0.,-0.00017528,0.,0.,-0.00392925,0.,0.,-0.
 00952751,0.,0.,0.00078207,-0.00797107,-0.01246968,0.,-0.05117183,-0.00
 052862,0.,0.01671106,0.03291686,0.,0.05372376,-0.02854296,0.,-0.017350
 47,-0.03804373,0.,-0.01573445,0.03317149,0.,0.00363645,-0.00416700,0.,
 0.07659201,-0.01246969,-0.02425813,0.,0.01002857,0.00558348,0.,-0.0157
 9934,-0.02069866,0.,-0.02854295,0.01644292,0.,0.01067245,0.01336285,0.
 ,0.02261430,-0.02985389,0.,0.00463577,-0.00716822,0.,-0.01518941,0.056
 75264,0.,0.,-0.00991774,0.,0.,-0.00396697,0.,0.,-0.00015500,0.,0.,0.01
 047440,0.,0.,-0.00015500,0.,0.,-0.00396698,0.,0.,0.00414447,0.,0.,0.00
 123833,-0.00202893,-0.01471421,0.,-0.03082951,-0.00073416,0.,-0.004699
 70,0.01705674,0.,-0.00393870,0.00387417,0.,0.00103494,-0.00184010,0.,-
 0.00614929,-0.00429188,0.,0.00416965,0.00222496,0.,-0.00415244,-0.0092
 5366,0.,0.04775967,-0.02513108,-0.04344198,0.,-0.00072491,-0.00106440,
 0.,0.02757397,-0.04119618,0.,-0.04473803,-0.00013302,0.,-0.00186541,0.
 06908339,0.,0.04440061,0.00230324,0.,-0.02294525,-0.00936206,0.,-0.000
 45090,0.00062067,0.,-0.00092300,0.08474376,0.,0.,-0.00395545,0.,0.,-0.
 00952751,0.,0.,-0.00392926,0.,0.,-0.00017528,0.,0.,0.01046237,0.,0.,-0
 .00014452,0.,0.,0.00336524,0.,0.,0.00414447,0.,0.,0.00078207,0.0174370
 9,-0.03077823,0.,-0.05071687,-0.00247826,0.,-0.00929562,0.01333814,0.,
 -0.01281863,-0.03217746,0.,-0.01858614,0.03627853,0.,0.05043462,0.0303
 9583,0.,-0.03965253,-0.02442317,0.,-0.01492992,0.01189518,0.,-0.004209
 46,-0.00030173,0.,0.07453134,0.01783397,-0.02150882,0.,-0.01299550,0.0
 0482101,0.,0.01332888,-0.02259829,0.,-0.02176060,-0.03265227,0.,-0.012
 41396,0.01474008,0.,0.03042113,0.01968370,0.,-0.02442317,-0.01492906,0
 .,-0.01327297,0.00975047,0.,0.00866358,0.00125139,0.,0.01656066,0.0579
 7209,0.,0.,-0.00017528,0.,0.,-0.00392926,0.,0.,-0.00952750,0.,0.,-0.00
 395546,0.,0.,-0.00014453,0.,0.,0.01046237,0.,0.,-0.00854621,0.,0.,0.00
 335021,0.,0.,0.00417388,0.,0.,0.00078207,0.05372377,-0.02854295,0.,-0.
 01735047,-0.03804376,0.,-0.01573446,0.03317149,0.,-0.00797107,-0.01246
 970,0.,-0.05117181,-0.00052863,0.,0.01671105,0.03291685,0.,-0.01492991
 ,-0.01327296,0.,-0.04235538,0.02297085,0.,0.00300227,0.02360608,0.,0.0
 0363646,-0.00416699,0.,0.07659199,-0.02854296,0.01644292,0.,0.01067245
 ,0.01336287,0.,0.02261430,-0.02985389,0.,-0.01246969,-0.02425812,0.,0.
 01002856,0.00558348,0.,-0.01579933,-0.02069866,0.,0.01189518,0.0097504
 7,0.,0.02297086,-0.01235243,0.,-0.00156207,-0.00818172,0.,0.00463576,-
 0.00716822,0.,-0.01518940,0.05675264,0.,0.,0.01047440,0.,0.,-0.0001550
 0,0.,0.,-0.00396698,0.,0.,-0.00991773,0.,0.,-0.00396698,0.,0.,-0.00015
 500,0.,0.,0.00335021,0.,0.,-0.00854039,0.,0.,0.00335021,0.,0.,0.004144
 47,0.,0.,0.00123833,-0.00393871,0.00387417,0.,0.00103494,-0.00184010,0
 .,-0.00614930,-0.00429188,0.,-0.00202893,-0.01471421,0.,-0.03082952,-0
 .00073416,0.,-0.00469970,0.01705674,0.,-0.00420946,0.00866359,0.,0.003
 00227,-0.00156207,0.,0.00004150,0.00149964,0.,0.00416965,0.00222496,0.
 ,-0.00415244,-0.00925366,0.,0.04775968,-0.04473801,-0.00013304,0.,-0.0
 0186541,0.06908339,0.,0.04440061,0.00230324,0.,-0.02513108,-0.04344197
 ,0.,-0.00072490,-0.00106445,0.,0.02757398,-0.04119616,0.,-0.00030174,0
 .00125138,0.,0.02360606,-0.00818171,0.,0.00149964,-0.05462310,0.,-0.02
 294525,-0.00936206,0.,-0.00045089,0.00062067,0.,-0.00092300,0.08474382
 ,0.,0.,-0.00017528,0.,0.,0.01046237,0.,0.,-0.00014452,0.,0.,-0.0039554
 6,0.,0.,-0.00952751,0.,0.,-0.00392925,0.,0.,0.00417388,0.,0.,0.0033502
 1,0.,0.,-0.00854621,0.,0.,0.00336524,0.,0.,0.00414447,0.,0.,0.00078207
 \\-0.00015322,0.00008295,0.,0.00024335,-0.00014549,0.,-0.00025487,0.00
 012425,0.,0.00015325,-0.00008296,0.,-0.00024338,0.00014547,0.,0.000254
 87,-0.00012421,0.,-0.00000177,-0.00002050,0.,-0.00003464,0.00001875,0.
 ,0.00001619,0.00001268,0.,0.00000177,0.00002050,0.,0.00003465,-0.00001
 876,0.,-0.00001619,-0.00001269,0.\\\@


 GETTING A SIMPLE ANSWER FROM A PROFESSOR IS LIKE
 GETTING A THIMBLE OF WATER FROM A FIRE HYDRANT.
     -- PROF. LEN SHAPIRO, NDSU
 Job cpu time:       0 days  0 hours 43 minutes 30.5 seconds.
 Elapsed time:       0 days  0 hours 10 minutes 54.9 seconds.
 File lengths (MBytes):  RWF=    331 Int=      0 D2E=      0 Chk=     34 Scr=      1
 Normal termination of Gaussian 16 at Tue Dec  9 13:23:08 2025.
