 Entering Gaussian System, Link 0=g16
 Initial command:
 /share/software/user/restricted/gaussian/g16.B01/l1.exe "/home/users/jlapier/Chloroaromatics/Gau-7125.inp" -scrdir="/home/users/jlapier/Chloroaromatics/"
 Entering Link 1 = /share/software/user/restricted/gaussian/g16.B01/l1.exe PID=      7126.
  
 Copyright (c) 1988-2017, Gaussian, Inc.  All Rights Reserved.
  
 This is part of the Gaussian(R) 16 program.  It is based on
 the Gaussian(R) 09 system (copyright 2009, Gaussian, Inc.),
 the Gaussian(R) 03 system (copyright 2003, Gaussian, Inc.),
 the Gaussian(R) 98 system (copyright 1998, Gaussian, Inc.),
 the Gaussian(R) 94 system (copyright 1995, Gaussian, Inc.),
 the Gaussian 92(TM) system (copyright 1992, Gaussian, Inc.),
 the Gaussian 90(TM) system (copyright 1990, Gaussian, Inc.),
 the Gaussian 88(TM) system (copyright 1988, Gaussian, Inc.),
 the Gaussian 86(TM) system (copyright 1986, Carnegie Mellon
 University), and the Gaussian 82(TM) system (copyright 1983,
 Carnegie Mellon University). Gaussian is a federally registered
 trademark of Gaussian, Inc.
  
 This software contains proprietary and confidential information,
 including trade secrets, belonging to Gaussian, Inc.
  
 This software is provided under written license and may be
 used, copied, transmitted, or stored only in accord with that
 written license.
  
 The following legend is applicable only to US Government
 contracts under FAR:
  
                    RESTRICTED RIGHTS LEGEND
  
 Use, reproduction and disclosure by the US Government is
 subject to restrictions as set forth in subparagraphs (a)
 and (c) of the Commercial Computer Software - Restricted
 Rights clause in FAR 52.227-19.
  
 Gaussian, Inc.
 340 Quinnipiac St., Bldg. 40, Wallingford CT 06492
  
  
 ---------------------------------------------------------------
 Warning -- This program may not be used in any manner that
 competes with the business of Gaussian, Inc. or will provide
 assistance to any competitor of Gaussian, Inc.  The licensee
 of this program is prohibited from giving any competitor of
 Gaussian, Inc. access to this program.  By using this program,
 the user acknowledges that Gaussian, Inc. is engaged in the
 business of creating and licensing software in the field of
 computational chemistry and represents and warrants to the
 licensee that it is not a competitor of Gaussian, Inc. and that
 it will not use this program in any manner prohibited above.
 ---------------------------------------------------------------
  

 Cite this work as:
 Gaussian 16, Revision B.01,
 M. J. Frisch, G. W. Trucks, H. B. Schlegel, G. E. Scuseria, 
 M. A. Robb, J. R. Cheeseman, G. Scalmani, V. Barone, 
 G. A. Petersson, H. Nakatsuji, X. Li, M. Caricato, A. V. Marenich, 
 J. Bloino, B. G. Janesko, R. Gomperts, B. Mennucci, H. P. Hratchian, 
 J. V. Ortiz, A. F. Izmaylov, J. L. Sonnenberg, D. Williams-Young, 
 F. Ding, F. Lipparini, F. Egidi, J. Goings, B. Peng, A. Petrone, 
 T. Henderson, D. Ranasinghe, V. G. Zakrzewski, J. Gao, N. Rega, 
 G. Zheng, W. Liang, M. Hada, M. Ehara, K. Toyota, R. Fukuda, 
 J. Hasegawa, M. Ishida, T. Nakajima, Y. Honda, O. Kitao, H. Nakai, 
 T. Vreven, K. Throssell, J. A. Montgomery, Jr., J. E. Peralta, 
 F. Ogliaro, M. J. Bearpark, J. J. Heyd, E. N. Brothers, K. N. Kudin, 
 V. N. Staroverov, T. A. Keith, R. Kobayashi, J. Normand, 
 K. Raghavachari, A. P. Rendell, J. C. Burant, S. S. Iyengar, 
 J. Tomasi, M. Cossi, J. M. Millam, M. Klene, C. Adamo, R. Cammi, 
 J. W. Ochterski, R. L. Martin, K. Morokuma, O. Farkas, 
 J. B. Foresman, and D. J. Fox, Gaussian, Inc., Wallingford CT, 2016.
 
 ******************************************
 Gaussian 16:  ES64L-G16RevB.01 20-Dec-2017
                 9-Dec-2025 
 ******************************************
 %mem=8GB
 %nprocshare=4
 Will use up to    4 processors via shared memory.
 %oldchk=geometry_chks/1235ClBzAnionRadical.chk
 %chk=frequency_chks/1235ClBzAnionRadical_Freq.chk
 Copying data from "geometry_chks/1235ClBzAnionRadical.chk" to current chk file "frequency_chks/1235ClBzAnionRadical_Freq.chk"
 IOpt=  2 FromEx=T IUOpen= 4 IOptOp= 5 NList=   0 IFRang= 0 IUIn= 4 IUOut= 2.
 -------------------------------------------------------
 # opt freq 6-311++g(d,p) guess=read geom=allcheck m062x
 -------------------------------------------------------
 1/18=20,19=15,26=3,29=7,38=1/1,3;
 2/9=110,12=2,40=1/2;
 3/5=4,6=6,7=1111,11=2,14=-4,25=1,30=1,71=1,74=-55,116=-2/1,2,3;
 4/5=1/1;
 5/5=2,38=6/2;
 6/7=2,8=2,9=2,10=2,28=1/1;
 7//1,2,3,16;
 1/18=20,19=15,26=3/3(2);
 2/9=110/2;
 99//99;
 2/9=110/2;
 3/5=4,6=6,7=1111,11=2,14=-2,25=1,30=1,71=1,74=-55/1,2,3;
 4/5=5,16=3,69=1/1;
 5/5=2,38=5/2;
 7//1,2,3,16;
 1/18=20,19=15,26=3/3(-5);
 2/9=110/2;
 6/7=2,8=2,9=2,10=2,19=2,28=1/1;
 99/9=1/99;
 Structure from the checkpoint file:  "frequency_chks/1235ClBzAnionRadical_Freq.chk"
 -------------------------------------
 4-Chloro-Benzene Anion Radical (1235)
 -------------------------------------
 Charge = -1 Multiplicity = 2
 Redundant internal coordinates found in file.  (old form).
 C,0,-3.1916323829,0.1899373434,0.
 C,0,-1.9842659907,0.9127883808,0.
 C,0,-0.7551665632,0.2463250064,0.
 C,0,-0.7162716416,-1.1499605037,0.
 C,0,-1.9066040057,-1.8808912402,0.
 C,0,-3.1366774885,-1.2162026727,0.
 Cl,0,-4.583954498,-2.1318836786,0.
 Cl,0,-4.6905735798,1.0013070379,0.
 Cl,0,-2.0089402633,2.6252349107,0.
 H,0,0.185907497,0.8129996294,0.
 Cl,0,0.9799426809,-2.0680951874,0.
 H,0,-1.8664637643,-2.9793890261,0.
 Recover connectivity data from disk.

 GradGradGradGradGradGradGradGradGradGradGradGradGradGradGradGradGradGrad
 Berny optimization.
 Initialization pass.
                           ----------------------------
                           !    Initial Parameters    !
                           ! (Angstroms and Degrees)  !
 --------------------------                            --------------------------
 ! Name  Definition              Value          Derivative Info.                !
 --------------------------------------------------------------------------------
 ! R1    R(1,2)                  1.4072         estimate D2E/DX2                !
 ! R2    R(1,6)                  1.4072         estimate D2E/DX2                !
 ! R3    R(1,8)                  1.7044         estimate D2E/DX2                !
 ! R4    R(2,3)                  1.3982         estimate D2E/DX2                !
 ! R5    R(2,9)                  1.7126         estimate D2E/DX2                !
 ! R6    R(3,4)                  1.3968         estimate D2E/DX2                !
 ! R7    R(3,10)                 1.0985         estimate D2E/DX2                !
 ! R8    R(4,5)                  1.3968         estimate D2E/DX2                !
 ! R9    R(4,11)                 1.9288         estimate D2E/DX2                !
 ! R10   R(5,6)                  1.3982         estimate D2E/DX2                !
 ! R11   R(5,12)                 1.0992         estimate D2E/DX2                !
 ! R12   R(6,7)                  1.7126         estimate D2E/DX2                !
 ! A1    A(2,1,6)              118.6709         estimate D2E/DX2                !
 ! A2    A(2,1,8)              120.6645         estimate D2E/DX2                !
 ! A3    A(6,1,8)              120.6646         estimate D2E/DX2                !
 ! A4    A(1,2,3)              120.6228         estimate D2E/DX2                !
 ! A5    A(1,2,9)              120.0835         estimate D2E/DX2                !
 ! A6    A(3,2,9)              119.2937         estimate D2E/DX2                !
 ! A7    A(2,3,4)              120.0638         estimate D2E/DX2                !
 ! A8    A(2,3,10)             120.4772         estimate D2E/DX2                !
 ! A9    A(4,3,10)             119.4589         estimate D2E/DX2                !
 ! A10   A(3,4,5)              119.9566         estimate D2E/DX2                !
 ! A11   A(3,4,11)             120.0216         estimate D2E/DX2                !
 ! A12   A(5,4,11)             120.0217         estimate D2E/DX2                !
 ! A13   A(4,5,6)              120.0625         estimate D2E/DX2                !
 ! A14   A(4,5,12)             119.4595         estimate D2E/DX2                !
 ! A15   A(6,5,12)             120.4779         estimate D2E/DX2                !
 ! A16   A(1,6,5)              120.6233         estimate D2E/DX2                !
 ! A17   A(1,6,7)              120.0831         estimate D2E/DX2                !
 ! A18   A(5,6,7)              119.2935         estimate D2E/DX2                !
 ! D1    D(6,1,2,3)              0.0            estimate D2E/DX2                !
 ! D2    D(6,1,2,9)            180.0            estimate D2E/DX2                !
 ! D3    D(8,1,2,3)            180.0            estimate D2E/DX2                !
 ! D4    D(8,1,2,9)              0.0            estimate D2E/DX2                !
 ! D5    D(2,1,6,5)              0.0            estimate D2E/DX2                !
 ! D6    D(2,1,6,7)            180.0            estimate D2E/DX2                !
 ! D7    D(8,1,6,5)            180.0            estimate D2E/DX2                !
 ! D8    D(8,1,6,7)              0.0            estimate D2E/DX2                !
 ! D9    D(1,2,3,4)              0.0            estimate D2E/DX2                !
 ! D10   D(1,2,3,10)           180.0            estimate D2E/DX2                !
 ! D11   D(9,2,3,4)            180.0            estimate D2E/DX2                !
 ! D12   D(9,2,3,10)             0.0            estimate D2E/DX2                !
 ! D13   D(2,3,4,5)              0.0            estimate D2E/DX2                !
 ! D14   D(2,3,4,11)           180.0            estimate D2E/DX2                !
 ! D15   D(10,3,4,5)           180.0            estimate D2E/DX2                !
 ! D16   D(10,3,4,11)            0.0            estimate D2E/DX2                !
 ! D17   D(3,4,5,6)              0.0            estimate D2E/DX2                !
 ! D18   D(3,4,5,12)           180.0            estimate D2E/DX2                !
 ! D19   D(11,4,5,6)           180.0            estimate D2E/DX2                !
 ! D20   D(11,4,5,12)            0.0            estimate D2E/DX2                !
 ! D21   D(4,5,6,1)              0.0            estimate D2E/DX2                !
 ! D22   D(4,5,6,7)            180.0            estimate D2E/DX2                !
 ! D23   D(12,5,6,1)           180.0            estimate D2E/DX2                !
 ! D24   D(12,5,6,7)             0.0            estimate D2E/DX2                !
 --------------------------------------------------------------------------------
 Trust Radius=3.00D-01 FncErr=1.00D-07 GrdErr=1.00D-06 EigMax=2.50D+02 EigMin=1.00D-04
 Number of steps in this run=     64 maximum allowed number of steps=    100.
 GradGradGradGradGradGradGradGradGradGradGradGradGradGradGradGradGradGrad

                          Input orientation:                          
 ---------------------------------------------------------------------
 Center     Atomic      Atomic             Coordinates (Angstroms)
 Number     Number       Type             X           Y           Z
 ---------------------------------------------------------------------
      1          6           0       -3.191632    0.189937   -0.000000
      2          6           0       -1.984266    0.912788    0.000000
      3          6           0       -0.755167    0.246325    0.000000
      4          6           0       -0.716272   -1.149961   -0.000000
      5          6           0       -1.906604   -1.880891   -0.000000
      6          6           0       -3.136677   -1.216203   -0.000000
      7         17           0       -4.583954   -2.131884   -0.000000
      8         17           0       -4.690574    1.001307   -0.000000
      9         17           0       -2.008940    2.625235    0.000000
     10          1           0        0.185907    0.813000    0.000000
     11         17           0        0.979943   -2.068095   -0.000000
     12          1           0       -1.866464   -2.979389   -0.000000
 ---------------------------------------------------------------------
                    Distance matrix (angstroms):
                    1          2          3          4          5
     1  C    0.000000
     2  C    1.407213   0.000000
     3  C    2.437118   1.398163   0.000000
     4  C    2.814736   2.421310   1.396827   0.000000
     5  C    2.437135   2.794759   2.418855   1.396836   0.000000
     6  C    1.407213   2.420879   2.794742   2.421312   1.398174
     7  Cl   2.707289   4.003549   4.507271   3.990381   2.689090
     8  Cl   1.704449   2.707755   4.007172   4.519184   4.007188
     9  Cl   2.707293   1.712624   2.689082   3.990375   4.507288
    10  H    3.434528   2.172467   1.098517   2.160356   3.411107
    11  Cl   4.743495   4.203832   2.892602   1.928760   2.892611
    12  H    3.435215   3.893960   3.411776   2.160961   1.099231
                    6          7          8          9         10
     6  C    0.000000
     7  Cl   1.712624   0.000000
     8  Cl   2.707756   3.135004   0.000000
     9  Cl   4.003553   5.409332   3.135012   0.000000
    10  H    3.893229   5.605704   4.880116   2.846323   0.000000
    11  Cl   4.203841   5.564263   6.447944   5.564240   2.988511
    12  H    2.173078   2.846581   4.880731   5.606435   4.312127
                   11         12
    11  Cl   0.000000
    12  H    2.988727   0.000000
 Stoichiometry    C6H2Cl4(1-,2)
 Framework group  CS[SG(C6H2Cl4)]
 Deg. of freedom    21
 Full point group                 CS      NOp   2
 Largest Abelian subgroup         CS      NOp   2
 Largest concise Abelian subgroup C1      NOp   1
                         Standard orientation:                         
 ---------------------------------------------------------------------
 Center     Atomic      Atomic             Coordinates (Angstroms)
 Number     Number       Type             X           Y           Z
 ---------------------------------------------------------------------
      1          6           0        0.000000    0.979720   -0.000000
      2          6           0       -1.210441    0.262030   -0.000000
      3          6           0       -1.209427   -1.136132   -0.000000
      4          6           0       -0.000011   -1.835016    0.000000
      5          6           0        1.209427   -1.136152    0.000000
      6          6           0        1.210438    0.262022    0.000000
      7         17           0        2.704664    1.098903    0.000000
      8         17           0        0.000005    2.684169   -0.000000
      9         17           0       -2.704668    1.098911   -0.000000
     10          1           0       -2.155759   -1.693983   -0.000000
     11         17           0       -0.000032   -3.763775    0.000000
     12          1           0        2.156368   -1.694374    0.000000
 ---------------------------------------------------------------------
 Rotational constants (GHZ):           0.8547656           0.5481252           0.3339665
 Standard basis: 6-311++G(d,p) (5D, 7F)
 There are   206 symmetry adapted cartesian basis functions of A'  symmetry.
 There are    70 symmetry adapted cartesian basis functions of A"  symmetry.
 There are   196 symmetry adapted basis functions of A'  symmetry.
 There are    70 symmetry adapted basis functions of A"  symmetry.
   266 basis functions,   446 primitive gaussians,   276 cartesian basis functions
    54 alpha electrons       53 beta electrons
       nuclear repulsion energy       823.7846297315 Hartrees.
 NAtoms=   12 NActive=   12 NUniq=   12 SFac= 1.00D+00 NAtFMM=   60 NAOKFM=F Big=F
 Integral buffers will be    131072 words long.
 Raffenetti 2 integral format.
 Two-electron integral symmetry is turned on.
 One-electron integrals computed using PRISM.
 NBasis=   266 RedAO= T EigKep=  1.24D-06  NBF=   196    70
 NBsUse=   265 1.00D-06 EigRej=  7.86D-07 NBFU=   195    70
 Initial guess from the checkpoint file:  "frequency_chks/1235ClBzAnionRadical_Freq.chk"
 B after Tr=     0.000000    0.000000    0.000000
         Rot=    1.000000   -0.000000   -0.000000   -0.000000 Ang=   0.00 deg.
 Initial guess orbital symmetries:
 Alpha Orbitals:
       Occupied  (A') (A') (A') (A') (A') (A') (A') (A') (A') (A')
                 (A') (A') (A") (A') (A') (A") (A") (A') (A') (A')
                 (A') (A") (A') (A") (A") (A') (A") (A') (A") (A")
                 (A') (A') (A') (A") (A') (A') (A') (A') (A') (A')
                 (A') (A') (A') (A') (A') (A') (A') (A') (A') (A')
                 (A') (A') (A') (A')
       Virtual   (A') (A') (A') (A') (A') (A') (A') (A') (A') (A')
                 (A') (A') (A') (A') (A') (A') (A') (A') (A') (A')
                 (A') (A') (A') (A') (A') (A') (A') (A') (A') (A')
                 (A') (A') (A') (A') (A') (A') (A') (A') (A') (A')
                 (A') (A') (A') (A') (A') (A') (A') (A') (A') (A')
                 (A') (A') (A') (A') (A') (A') (A') (A') (A') (A')
                 (A') (A') (A') (A') (A') (A') (A') (A') (A') (A')
                 (A') (A') (A') (A') (A') (A') (A') (A') (A') (A')
                 (A') (A') (A') (A') (A') (A') (A') (A') (A') (A')
                 (A') (A') (A') (A') (A') (A') (A') (A') (A') (A')
                 (A') (A') (A') (A') (A') (A') (A') (A') (A') (A')
                 (A') (A') (A') (A') (A') (A') (A') (A') (A') (A')
                 (A') (A') (A') (A') (A') (A') (A') (A') (A') (A')
                 (A') (A') (A') (A') (A') (A') (A') (A') (A') (A')
                 (A') (A') (A') (A') (A') (A') (A') (A') (A') (A')
                 (A') (A") (A") (A") (A") (A") (A") (A") (A") (A")
                 (A") (A") (A") (A") (A") (A") (A") (A") (A") (A")
                 (A") (A") (A") (A") (A") (A") (A") (A") (A") (A")
                 (A") (A") (A") (A") (A") (A") (A") (A") (A") (A")
                 (A") (A") (A") (A") (A") (A") (A") (A") (A") (A")
                 (A") (A") (A") (A") (A") (A") (A") (A") (A") (A")
                 (A")
 Beta  Orbitals:
       Occupied  (A') (A') (A') (A') (A') (A') (A') (A') (A') (A')
                 (A') (A') (A") (A') (A') (A") (A") (A') (A') (A')
                 (A') (A") (A') (A") (A") (A') (A") (A") (A') (A")
                 (A') (A') (A") (A') (A') (A') (A') (A') (A') (A')
                 (A') (A') (A') (A') (A') (A') (A') (A') (A') (A')
                 (A') (A') (A')
       Virtual   (A') (A') (A') (A') (A') (A') (A') (A') (A') (A')
                 (A') (A') (A') (A') (A') (A') (A') (A') (A') (A')
                 (A') (A') (A') (A') (A') (A') (A') (A') (A') (A')
                 (A') (A') (A') (A') (A') (A') (A') (A') (A') (A')
                 (A') (A') (A') (A') (A') (A') (A') (A') (A') (A')
                 (A') (A') (A') (A') (A') (A') (A') (A') (A') (A')
                 (A') (A') (A') (A') (A') (A') (A') (A') (A') (A')
                 (A') (A') (A') (A') (A') (A') (A') (A') (A') (A')
                 (A') (A') (A') (A') (A') (A') (A') (A') (A') (A')
                 (A') (A') (A') (A') (A') (A') (A') (A') (A') (A')
                 (A') (A') (A') (A') (A') (A') (A') (A') (A') (A')
                 (A') (A') (A') (A') (A') (A') (A') (A') (A') (A')
                 (A') (A') (A') (A') (A') (A') (A') (A') (A') (A')
                 (A') (A') (A') (A') (A') (A') (A') (A') (A') (A')
                 (A') (A') (A') (A') (A') (A') (A') (A') (A') (A')
                 (A') (A') (A") (A") (A") (A") (A") (A") (A") (A")
                 (A") (A") (A") (A") (A") (A") (A") (A") (A") (A")
                 (A") (A") (A") (A") (A") (A") (A") (A") (A") (A")
                 (A") (A") (A") (A") (A") (A") (A") (A") (A") (A")
                 (A") (A") (A") (A") (A") (A") (A") (A") (A") (A")
                 (A") (A") (A") (A") (A") (A") (A") (A") (A") (A")
                 (A") (A")
 Initial guess <Sx>= 0.0000 <Sy>= 0.0000 <Sz>= 0.5000 <S**2>= 0.7500 S= 0.5000
 Keep R1 and R2 ints in memory in symmetry-blocked form, NReq=994759113.
 Requested convergence on RMS density matrix=1.00D-08 within 128 cycles.
 Requested convergence on MAX density matrix=1.00D-06.
 Requested convergence on             energy=1.00D-06.
 No special actions if energy rises.
 EnCoef did     5 forward-backward iterations
 EnCoef did     3 forward-backward iterations
 EnCoef did     4 forward-backward iterations
 EnCoef did     4 forward-backward iterations
 SCF Done:  E(UM062X) =  -2070.57398618     A.U. after   44 cycles
            NFock= 44  Conv=0.50D-08     -V/T= 2.0023
 <Sx>= 0.0000 <Sy>= 0.0000 <Sz>= 0.5000 <S**2>= 0.7596 S= 0.5048
 <L.S>=  0.00000000000    
 Annihilation of the first spin contaminant:
 S**2 before annihilation     0.7596,   after     0.7501

 **********************************************************************

            Population analysis using the SCF Density.

 **********************************************************************

 Orbital symmetries:
 Alpha Orbitals:
       Occupied  (A') (A') (A') (A') (A') (A') (A') (A') (A') (A')
                 (A') (A') (A') (A') (A') (A") (A') (A') (A') (A')
                 (A') (A") (A") (A") (A') (A') (A') (A') (A') (A')
                 (A') (A') (A') (A') (A') (A') (A') (A') (A") (A')
                 (A') (A') (A') (A") (A") (A") (A') (A') (A') (A")
                 (A') (A") (A") (A")
       Virtual   (A') (A') (A') (A') (A') (A') (A") (A") (A') (A')
                 (A") (A') (A") (A') (A') (A") (A') (A') (A') (A")
                 (A') (A') (A") (A') (A') (A') (A") (A') (A") (A")
                 (A') (A') (A') (A") (A') (A') (A") (A') (A') (A')
                 (A') (A') (A') (A') (A') (A') (A') (A') (A') (A')
                 (A') (A') (A') (A') (A') (A") (A') (A") (A") (A')
                 (A') (A') (A") (A') (A') (A') (A') (A") (A') (A")
                 (A") (A") (A') (A") (A') (A') (A") (A') (A') (A')
                 (A') (A') (A") (A') (A') (A') (A') (A") (A') (A')
                 (A") (A") (A") (A') (A") (A") (A') (A') (A') (A')
                 (A') (A') (A") (A') (A') (A') (A") (A') (A') (A')
                 (A") (A') (A") (A') (A') (A') (A') (A') (A") (A")
                 (A') (A") (A') (A') (A') (A') (A') (A") (A") (A')
                 (A') (A') (A') (A") (A') (A") (A") (A') (A') (A")
                 (A') (A') (A") (A') (A') (A") (A") (A") (A') (A')
                 (A") (A") (A') (A') (A') (A') (A') (A') (A') (A')
                 (A') (A') (A") (A') (A') (A') (A') (A") (A") (A")
                 (A") (A') (A") (A') (A') (A') (A') (A') (A') (A')
                 (A') (A') (A') (A') (A') (A') (A') (A') (A') (A')
                 (A') (A') (A') (A') (A') (A") (A") (A") (A") (A')
                 (A') (A') (A') (A') (A') (A') (A') (A') (A') (A')
                 (A')
 Beta  Orbitals:
       Occupied  (A') (A') (A') (A') (A') (A') (A') (A') (A') (A')
                 (A') (A') (A') (A') (A') (A") (A') (A') (A') (A')
                 (A') (A") (A') (A') (A") (A") (A') (A') (A') (A')
                 (A') (A') (A') (A') (A') (A') (A') (A') (A') (A')
                 (A") (A') (A') (A") (A") (A") (A') (A') (A') (A')
                 (A") (A") (A")
       Virtual   (A') (A') (A') (A') (A') (A") (A') (A") (A") (A')
                 (A") (A') (A') (A') (A") (A') (A") (A') (A') (A')
                 (A") (A") (A') (A') (A') (A') (A") (A') (A") (A')
                 (A") (A') (A') (A') (A') (A") (A') (A") (A') (A')
                 (A') (A') (A') (A') (A') (A') (A') (A') (A') (A')
                 (A') (A') (A') (A') (A') (A') (A") (A') (A") (A")
                 (A') (A') (A') (A") (A') (A') (A') (A') (A") (A')
                 (A") (A") (A') (A") (A") (A') (A') (A") (A') (A')
                 (A') (A') (A') (A") (A') (A') (A') (A') (A") (A')
                 (A') (A") (A") (A") (A') (A") (A") (A') (A') (A')
                 (A') (A') (A') (A") (A') (A') (A') (A") (A') (A')
                 (A') (A") (A') (A") (A') (A') (A') (A') (A') (A")
                 (A") (A') (A') (A") (A') (A') (A') (A') (A") (A")
                 (A') (A') (A') (A') (A") (A') (A") (A') (A") (A')
                 (A") (A') (A') (A") (A') (A') (A") (A") (A") (A')
                 (A') (A") (A") (A') (A') (A') (A') (A') (A') (A')
                 (A') (A') (A') (A') (A") (A') (A') (A') (A") (A")
                 (A") (A") (A') (A") (A') (A') (A') (A') (A') (A')
                 (A') (A') (A') (A') (A') (A') (A') (A') (A') (A')
                 (A') (A') (A') (A') (A') (A') (A") (A") (A") (A")
                 (A') (A') (A') (A') (A') (A') (A') (A') (A') (A')
                 (A') (A')
 The electronic state is 2-A".
 Alpha  occ. eigenvalues -- -102.55112-102.54399-102.54068-102.54065 -10.47876
 Alpha  occ. eigenvalues --  -10.47290 -10.44163 -10.44154 -10.39277 -10.39262
 Alpha  occ. eigenvalues --   -9.69465  -9.68411  -9.68368  -9.68365  -7.41971
 Alpha  occ. eigenvalues --   -7.41319  -7.41289  -7.40903  -7.40845  -7.40841
 Alpha  occ. eigenvalues --   -7.40277  -7.40270  -7.40250  -7.40247  -7.40232
 Alpha  occ. eigenvalues --   -7.40228  -0.89002  -0.84085  -0.82422  -0.80518
 Alpha  occ. eigenvalues --   -0.75818  -0.67482  -0.66532  -0.54525  -0.52761
 Alpha  occ. eigenvalues --   -0.43987  -0.42588  -0.39138  -0.36084  -0.35731
 Alpha  occ. eigenvalues --   -0.35703  -0.30477  -0.30169  -0.29973  -0.29167
 Alpha  occ. eigenvalues --   -0.27017  -0.25786  -0.24903  -0.24875  -0.23294
 Alpha  occ. eigenvalues --   -0.23019  -0.16053  -0.16004   0.02861
 Alpha virt. eigenvalues --    0.11166   0.11835   0.12357   0.12790   0.14079
 Alpha virt. eigenvalues --    0.14911   0.15138   0.17799   0.17805   0.18550
 Alpha virt. eigenvalues --    0.19076   0.19731   0.19942   0.20194   0.20732
 Alpha virt. eigenvalues --    0.21425   0.21746   0.21901   0.22940   0.24032
 Alpha virt. eigenvalues --    0.24555   0.24621   0.25866   0.25888   0.25973
 Alpha virt. eigenvalues --    0.26973   0.27295   0.28780   0.29449   0.29876
 Alpha virt. eigenvalues --    0.29991   0.31100   0.31914   0.32190   0.32712
 Alpha virt. eigenvalues --    0.33250   0.33823   0.35985   0.36079   0.36555
 Alpha virt. eigenvalues --    0.37535   0.38167   0.38504   0.39641   0.40898
 Alpha virt. eigenvalues --    0.42697   0.42766   0.43058   0.43809   0.45599
 Alpha virt. eigenvalues --    0.47002   0.49054   0.49196   0.55821   0.56800
 Alpha virt. eigenvalues --    0.57886   0.59517   0.61168   0.61311   0.61929
 Alpha virt. eigenvalues --    0.62308   0.62634   0.63890   0.65137   0.66184
 Alpha virt. eigenvalues --    0.66537   0.69055   0.70894   0.73014   0.76698
 Alpha virt. eigenvalues --    0.76744   0.78412   0.78864   0.79354   0.80899
 Alpha virt. eigenvalues --    0.82998   0.83640   0.84934   0.85653   0.89622
 Alpha virt. eigenvalues --    0.89943   0.92702   0.94687   0.98735   1.01961
 Alpha virt. eigenvalues --    1.02795   1.03161   1.03241   1.04768   1.05674
 Alpha virt. eigenvalues --    1.06108   1.06611   1.06617   1.06672   1.07885
 Alpha virt. eigenvalues --    1.08124   1.08933   1.10577   1.11730   1.12143
 Alpha virt. eigenvalues --    1.12626   1.13367   1.13494   1.15440   1.15455
 Alpha virt. eigenvalues --    1.16654   1.18920   1.21370   1.22855   1.27996
 Alpha virt. eigenvalues --    1.30566   1.33156   1.36586   1.38899   1.38923
 Alpha virt. eigenvalues --    1.41726   1.42974   1.47815   1.48318   1.50614
 Alpha virt. eigenvalues --    1.50839   1.52591   1.52728   1.65228   1.66695
 Alpha virt. eigenvalues --    1.71273   1.77433   1.79810   1.79919   1.82737
 Alpha virt. eigenvalues --    1.88991   1.96480   1.98531   2.00063   2.02729
 Alpha virt. eigenvalues --    2.06931   2.08580   2.09098   2.13655   2.14006
 Alpha virt. eigenvalues --    2.21611   2.26107   2.26986   2.35283   2.40098
 Alpha virt. eigenvalues --    2.40937   2.43405   2.44134   2.44228   2.46087
 Alpha virt. eigenvalues --    2.47558   2.48842   2.54716   2.58095   2.59968
 Alpha virt. eigenvalues --    2.60195   2.65813   2.68063   2.71111   2.74576
 Alpha virt. eigenvalues --    2.76850   2.78508   2.84267   2.85148   2.90868
 Alpha virt. eigenvalues --    2.91818   2.92466   2.98161   2.99724   3.08717
 Alpha virt. eigenvalues --    3.09033   3.20571   3.27788   3.32728   3.37672
 Alpha virt. eigenvalues --    3.43894   3.45092   3.54717   3.61501   3.83321
 Alpha virt. eigenvalues --    3.92197   4.00497   4.18123   4.27178   4.97828
 Alpha virt. eigenvalues --   10.04168  10.09003  10.14342  10.15835  23.60460
 Alpha virt. eigenvalues --   24.05352  24.09478  24.17622  24.27286  24.32714
 Alpha virt. eigenvalues --   26.02006  26.04603  26.07301  26.13582  26.28011
 Alpha virt. eigenvalues --   26.34711  26.39229  26.49916  26.69509  26.72761
 Alpha virt. eigenvalues --   26.92208  27.07502 216.13603 216.19044 216.25013
 Alpha virt. eigenvalues --  216.26908
  Beta  occ. eigenvalues -- -102.55118-102.54399-102.54063-102.54059 -10.47954
  Beta  occ. eigenvalues --  -10.47384 -10.43908 -10.43898 -10.39097 -10.39081
  Beta  occ. eigenvalues --   -9.69467  -9.68411  -9.68367  -9.68363  -7.41969
  Beta  occ. eigenvalues --   -7.41338  -7.41293  -7.40901  -7.40880  -7.40876
  Beta  occ. eigenvalues --   -7.40276  -7.40272  -7.40230  -7.40226  -7.40197
  Beta  occ. eigenvalues --   -7.40194  -0.88648  -0.83680  -0.82264  -0.80413
  Beta  occ. eigenvalues --   -0.75543  -0.66659  -0.66157  -0.53520  -0.52379
  Beta  occ. eigenvalues --   -0.43624  -0.42023  -0.38750  -0.35568  -0.35150
  Beta  occ. eigenvalues --   -0.35086  -0.30192  -0.29914  -0.29017  -0.28827
  Beta  occ. eigenvalues --   -0.26857  -0.25615  -0.24814  -0.24807  -0.22989
  Beta  occ. eigenvalues --   -0.22676  -0.14711  -0.13260
  Beta virt. eigenvalues --    0.11144   0.12168   0.12395   0.12775   0.14472
  Beta virt. eigenvalues --    0.14869   0.15105   0.15485   0.17016   0.17554
  Beta virt. eigenvalues --    0.18401   0.18708   0.19639   0.19667   0.20035
  Beta virt. eigenvalues --    0.20324   0.21089   0.21728   0.21793   0.22705
  Beta virt. eigenvalues --    0.23236   0.23813   0.24062   0.24716   0.25012
  Beta virt. eigenvalues --    0.25663   0.25859   0.27055   0.28818   0.28841
  Beta virt. eigenvalues --    0.29612   0.30096   0.30567   0.31631   0.31798
  Beta virt. eigenvalues --    0.32453   0.32844   0.34565   0.35158   0.35436
  Beta virt. eigenvalues --    0.36094   0.37279   0.37773   0.38039   0.39223
  Beta virt. eigenvalues --    0.40219   0.41678   0.42190   0.42397   0.42723
  Beta virt. eigenvalues --    0.46068   0.47238   0.49101   0.49154   0.55722
  Beta virt. eigenvalues --    0.56744   0.58161   0.59604   0.61459   0.61487
  Beta virt. eigenvalues --    0.62024   0.62333   0.62839   0.64121   0.64936
  Beta virt. eigenvalues --    0.66205   0.66449   0.68948   0.71394   0.72879
  Beta virt. eigenvalues --    0.76783   0.77298   0.79084   0.79397   0.79915
  Beta virt. eigenvalues --    0.81376   0.83499   0.84398   0.85271   0.86308
  Beta virt. eigenvalues --    0.90039   0.90167   0.92878   0.94935   0.99221
  Beta virt. eigenvalues --    1.01889   1.02726   1.03229   1.03551   1.05588
  Beta virt. eigenvalues --    1.05714   1.06355   1.06725   1.06773   1.07210
  Beta virt. eigenvalues --    1.07924   1.08247   1.09264   1.10693   1.11684
  Beta virt. eigenvalues --    1.12550   1.12571   1.13389   1.13864   1.15443
  Beta virt. eigenvalues --    1.16004   1.16649   1.20417   1.21549   1.22953
  Beta virt. eigenvalues --    1.28068   1.31611   1.33226   1.37026   1.39029
  Beta virt. eigenvalues --    1.39034   1.41781   1.43147   1.47886   1.49399
  Beta virt. eigenvalues --    1.51093   1.51162   1.52819   1.53462   1.65552
  Beta virt. eigenvalues --    1.67309   1.71746   1.77888   1.80365   1.80561
  Beta virt. eigenvalues --    1.83161   1.89357   1.96944   1.99161   2.00590
  Beta virt. eigenvalues --    2.03140   2.07759   2.09597   2.10250   2.14089
  Beta virt. eigenvalues --    2.15178   2.21971   2.26541   2.27822   2.35789
  Beta virt. eigenvalues --    2.40518   2.41018   2.43488   2.44386   2.44605
  Beta virt. eigenvalues --    2.46441   2.48897   2.49081   2.54815   2.58354
  Beta virt. eigenvalues --    2.60139   2.60433   2.66050   2.68125   2.71743
  Beta virt. eigenvalues --    2.74710   2.77058   2.79032   2.85414   2.85452
  Beta virt. eigenvalues --    2.91455   2.91919   2.92741   2.98540   3.01806
  Beta virt. eigenvalues --    3.09614   3.10969   3.20917   3.29107   3.32924
  Beta virt. eigenvalues --    3.37956   3.44087   3.45512   3.54990   3.61958
  Beta virt. eigenvalues --    3.83913   3.92749   4.00933   4.19004   4.28094
  Beta virt. eigenvalues --    4.99203  10.04163  10.09003  10.14345  10.15839
  Beta virt. eigenvalues --   23.60402  24.05355  24.09569  24.17687  24.27478
  Beta virt. eigenvalues --   24.32893  26.02046  26.04617  26.07436  26.13637
  Beta virt. eigenvalues --   26.28021  26.34694  26.39224  26.49898  26.69449
  Beta virt. eigenvalues --   26.72776  26.92073  27.07450 216.13605 216.19044
  Beta virt. eigenvalues --  216.25022 216.26906
          Condensed to atoms (all electrons):
               1          2          3          4          5          6
     1  C   42.671898  -2.921047 -14.141648  -2.158696 -14.136964  -2.918076
     2  C   -2.921047  29.773642   2.405595  -5.550630  -2.640285 -13.810178
     3  C  -14.141648   2.405595  35.516231  -1.141977 -13.781811  -2.636879
     4  C   -2.158696  -5.550630  -1.141977  23.040250  -1.140069  -5.552911
     5  C  -14.136964  -2.640285 -13.781811  -1.140069  35.515292   2.403859
     6  C   -2.918076 -13.810178  -2.636879  -5.552911   2.403859  29.771778
     7  Cl   1.096006   0.668766   0.260933  -0.591604  -0.045343  -2.248715
     8  Cl  -2.768729   0.461615   0.252362   0.626561   0.252352   0.462239
     9  Cl   1.095563  -2.247642  -0.044890  -0.591955   0.260912   0.668394
    10  H   -0.100490  -0.035120   0.767269  -0.262743  -0.181602   0.080148
    11  Cl   0.278371   0.024653   0.236133  -1.311956   0.235836   0.024823
    12  H   -0.100210   0.080026  -0.181394  -0.262328   0.766419  -0.035070
               7          8          9         10         11         12
     1  C    1.096006  -2.768729   1.095563  -0.100490   0.278371  -0.100210
     2  C    0.668766   0.461615  -2.247642  -0.035120   0.024653   0.080026
     3  C    0.260933   0.252362  -0.044890   0.767269   0.236133  -0.181394
     4  C   -0.591604   0.626561  -0.591955  -0.262743  -1.311956  -0.262328
     5  C   -0.045343   0.252352   0.260912  -0.181602   0.235836   0.766419
     6  C   -2.248715   0.462239   0.668394   0.080148   0.024823  -0.035070
     7  Cl  17.960477  -0.391838   0.003024   0.001546  -0.015677   0.039034
     8  Cl  -0.391838  18.044887  -0.391791  -0.016035  -0.008528  -0.016022
     9  Cl   0.003024  -0.391791  17.959953   0.039071  -0.015663   0.001546
    10  H    0.001546  -0.016035   0.039071   0.555380   0.014949  -0.005227
    11  Cl  -0.015677  -0.008528  -0.015663   0.014949  17.392449   0.014957
    12  H    0.039034  -0.016022   0.001546  -0.005227   0.014957   0.555320
          Atomic-Atomic Spin Densities.
               1          2          3          4          5          6
     1  C    2.302660  -0.110249  -0.911980  -0.372002  -0.911103  -0.109583
     2  C   -0.110249   2.515072  -0.111232  -0.247966  -0.366269  -1.268636
     3  C   -0.911980  -0.111232   2.496553   0.029937  -0.926445  -0.366669
     4  C   -0.372002  -0.247966   0.029937   0.803395   0.029622  -0.248415
     5  C   -0.911103  -0.366269  -0.926445   0.029622   2.495726  -0.112068
     6  C   -0.109583  -1.268636  -0.366669  -0.248415  -0.112068   2.517410
     7  Cl   0.043925   0.066974  -0.053855  -0.011399   0.175248  -0.303633
     8  Cl  -0.063931   0.022385   0.020026  -0.003249   0.019839   0.022579
     9  Cl   0.043458  -0.303070   0.175202  -0.011419  -0.053721   0.067026
    10  H   -0.006684  -0.023064   0.053347  -0.012032  -0.029554  -0.002776
    11  Cl   0.014393   0.010110   0.006196  -0.062688   0.005912   0.010229
    12  H   -0.006632  -0.002775  -0.029495  -0.011978   0.053173  -0.023044
               7          8          9         10         11         12
     1  C    0.043925  -0.063931   0.043458  -0.006684   0.014393  -0.006632
     2  C    0.066974   0.022385  -0.303070  -0.023064   0.010110  -0.002775
     3  C   -0.053855   0.020026   0.175202   0.053347   0.006196  -0.029495
     4  C   -0.011399  -0.003249  -0.011419  -0.012032  -0.062688  -0.011978
     5  C    0.175248   0.019839  -0.053721  -0.029554   0.005912   0.053173
     6  C   -0.303633   0.022579   0.067026  -0.002776   0.010229  -0.023044
     7  Cl   0.115138  -0.001630  -0.003650  -0.001029   0.001053   0.011168
     8  Cl  -0.001630  -0.021234  -0.001531   0.000641  -0.000120   0.000638
     9  Cl  -0.003650  -0.001531   0.114780   0.011185   0.001058  -0.001027
    10  H   -0.001029   0.000641   0.011185   0.004091   0.005879  -0.002684
    11  Cl   0.001053  -0.000120   0.001058   0.005879   0.016647   0.005874
    12  H    0.011168   0.000638  -0.001027  -0.002684   0.005874   0.004175
 Mulliken charges and spin densities:
               1          2
     1  C    0.104022  -0.087726
     2  C   -0.209395   0.181281
     3  C   -1.509925   0.381587
     4  C    0.898058  -0.118194
     5  C   -1.508597   0.380360
     6  C   -0.209413   0.182419
     7  Cl   0.263391   0.038311
     8  Cl   0.492927  -0.005587
     9  Cl   0.263478   0.038293
    10  H    0.142854  -0.002680
    11  Cl   0.129653   0.014542
    12  H    0.142948  -0.002604
 Sum of Mulliken charges =  -1.00000   1.00000
 Mulliken charges and spin densities with hydrogens summed into heavy atoms:
               1          2
     1  C    0.104022  -0.087726
     2  C   -0.209395   0.181281
     3  C   -1.367071   0.378907
     4  C    0.898058  -0.118194
     5  C   -1.365649   0.377755
     6  C   -0.209413   0.182419
     7  Cl   0.263391   0.038311
     8  Cl   0.492927  -0.005587
     9  Cl   0.263478   0.038293
    11  Cl   0.129653   0.014542
 Electronic spatial extent (au):  <R**2>=           2892.4373
 Charge=             -1.0000 electrons
 Dipole moment (field-independent basis, Debye):
    X=             -0.0005    Y=              1.5118    Z=             -0.0000  Tot=              1.5118
 Quadrupole moment (field-independent basis, Debye-Ang):
   XX=           -104.3230   YY=           -111.6712   ZZ=            -93.5119
   XY=             -0.0053   XZ=             -0.0000   YZ=             -0.0000
 Traceless Quadrupole moment (field-independent basis, Debye-Ang):
   XX=             -1.1543   YY=             -8.5025   ZZ=              9.6568
   XY=             -0.0053   XZ=             -0.0000   YZ=             -0.0000
 Octapole moment (field-independent basis, Debye-Ang**2):
  XXX=             -0.0130  YYY=             58.4311  ZZZ=             -0.0000  XYY=              0.0010
  XXY=             -7.8560  XXZ=             -0.0000  XZZ=             -0.0006  YZZ=              8.3714
  YYZ=             -0.0000  XYZ=              0.0000
 Hexadecapole moment (field-independent basis, Debye-Ang**3):
 XXXX=          -1598.0512 YYYY=          -2444.3296 ZZZZ=           -121.5561 XXXY=             -0.0449
 XXXZ=             -0.0000 YYYX=             -0.0134 YYYZ=             -0.0000 ZZZX=             -0.0000
 ZZZY=             -0.0000 XXYY=           -643.4607 XXZZ=           -291.2914 YYZZ=           -415.9116
 XXYZ=             -0.0000 YYXZ=             -0.0000 ZZXY=             -0.0059
 N-N= 8.237846297315D+02 E-N=-6.573636694063D+03  KE= 2.065844122603D+03
 Symmetry A'   KE= 1.874601167337D+03
 Symmetry A"   KE= 1.912429552658D+02
 Symmetry A'   SP= 1.104823536870D-13
 Symmetry A"   SP= 1.000000000000D+00
                          Isotropic Fermi Contact Couplings
        Atom                 a.u.       MegaHertz       Gauss      10(-4) cm-1
     1  C(13)             -0.03621     -40.70178     -14.52341     -13.57665
     2  C(13)              0.04053      45.56856      16.26000      15.20004
     3  C(13)              0.02695      30.30076      10.81206      10.10725
     4  C(13)             -0.03169     -35.62177     -12.71073     -11.88214
     5  C(13)              0.02681      30.14474      10.75639      10.05520
     6  C(13)              0.04072      45.78086      16.33575      15.27085
     7  Cl(35)            -0.00394      -1.72598      -0.61587      -0.57572
     8  Cl(35)            -0.00066      -0.28878      -0.10305      -0.09633
     9  Cl(35)            -0.00393      -1.72144      -0.61425      -0.57421
    10  H(1)              -0.00454     -20.31022      -7.24719      -6.77476
    11  Cl(35)            -0.00097      -0.42467      -0.15153      -0.14166
    12  H(1)              -0.00453     -20.25671      -7.22810      -6.75691
 --------------------------------------------------------
       Center         ----  Spin Dipole Couplings  ----
                      3XX-RR        3YY-RR        3ZZ-RR
 --------------------------------------------------------
     1   Atom        0.048847      0.038108     -0.086955
     2   Atom       -0.191570     -0.192297      0.383867
     3   Atom       -0.151241     -0.152067      0.303308
     4   Atom        0.039161      0.030273     -0.069434
     5   Atom       -0.150755     -0.151538      0.302293
     6   Atom       -0.192199     -0.192966      0.385165
     7   Atom       -0.110257     -0.046130      0.156386
     8   Atom        0.008607      0.034352     -0.042958
     9   Atom       -0.109878     -0.045918      0.155796
    10   Atom        0.011128     -0.011466      0.000338
    11   Atom        0.000476      0.010766     -0.011242
    12   Atom        0.011106     -0.011410      0.000304
 --------------------------------------------------------
                        XY            XZ            YZ
 --------------------------------------------------------
     1   Atom       -0.000008     -0.000000      0.000000
     2   Atom       -0.004644      0.000000      0.000000
     3   Atom        0.004018      0.000000      0.000000
     4   Atom       -0.000008     -0.000000      0.000000
     5   Atom       -0.003998      0.000000     -0.000000
     6   Atom        0.004671      0.000000      0.000000
     7   Atom       -0.044277      0.000000     -0.000000
     8   Atom       -0.000008     -0.000000     -0.000000
     9   Atom        0.044134     -0.000000      0.000000
    10   Atom        0.019913      0.000000      0.000000
    11   Atom       -0.000013     -0.000000      0.000000
    12   Atom       -0.019843     -0.000000     -0.000000
 --------------------------------------------------------


 ---------------------------------------------------------------------------------
              Anisotropic Spin Dipole Couplings in Principal Axis System
 ---------------------------------------------------------------------------------

       Atom             a.u.   MegaHertz   Gauss  10(-4) cm-1        Axes

              Baa    -0.0870   -11.669    -4.164    -3.892  0.0000  0.0000  1.0000
     1 C(13)  Bbb     0.0381     5.114     1.825     1.706  0.0008  1.0000 -0.0000
              Bcc     0.0488     6.555     2.339     2.186  1.0000 -0.0008  0.0000
 
              Baa    -0.1966   -26.381    -9.413    -8.800  0.6789  0.7342 -0.0000
     2 C(13)  Bbb    -0.1873   -25.131    -8.967    -8.383  0.7342 -0.6789 -0.0000
              Bcc     0.3839    51.511    18.381    17.182  0.0000  0.0000  1.0000
 
              Baa    -0.1557   -20.892    -7.455    -6.969 -0.6700  0.7424 -0.0000
     3 C(13)  Bbb    -0.1476   -19.809    -7.068    -6.607  0.7424  0.6700  0.0000
              Bcc     0.3033    40.701    14.523    13.576  0.0000  0.0000  1.0000
 
              Baa    -0.0694    -9.317    -3.325    -3.108  0.0000  0.0000  1.0000
     4 C(13)  Bbb     0.0303     4.062     1.450     1.355  0.0009  1.0000 -0.0000
              Bcc     0.0392     5.255     1.875     1.753  1.0000 -0.0009  0.0000
 
              Baa    -0.1552   -20.821    -7.430    -6.945  0.6718  0.7407 -0.0000
     5 C(13)  Bbb    -0.1471   -19.743    -7.045    -6.586  0.7407 -0.6718  0.0000
              Bcc     0.3023    40.565    14.475    13.531  0.0000  0.0000  1.0000
 
              Baa    -0.1973   -26.472    -9.446    -8.830 -0.6776  0.7355  0.0000
     6 C(13)  Bbb    -0.1879   -25.214    -8.997    -8.410  0.7355  0.6776 -0.0000
              Bcc     0.3852    51.685    18.443    17.240  0.0000  0.0000  1.0000
 
              Baa    -0.1329    -6.954    -2.481    -2.319  0.8906  0.4547  0.0000
     7 Cl(35) Bbb    -0.0235    -1.231    -0.439    -0.411 -0.4547  0.8906  0.0000
              Bcc     0.1564     8.185     2.921     2.730  0.0000  0.0000  1.0000
 
              Baa    -0.0430    -2.248    -0.802    -0.750  0.0000  0.0000  1.0000
     8 Cl(35) Bbb     0.0086     0.450     0.161     0.150  1.0000  0.0003  0.0000
              Bcc     0.0344     1.798     0.642     0.600 -0.0003  1.0000 -0.0000
 
              Baa    -0.1324    -6.930    -2.473    -2.311  0.8907 -0.4546  0.0000
     9 Cl(35) Bbb    -0.0234    -1.224    -0.437    -0.408  0.4546  0.8907 -0.0000
              Bcc     0.1558     8.154     2.910     2.720  0.0000  0.0000  1.0000
 
              Baa    -0.0231   -12.305    -4.391    -4.105 -0.5033  0.8641 -0.0000
    10 H(1)   Bbb     0.0003     0.180     0.064     0.060  0.0000  0.0000  1.0000
              Bcc     0.0227    12.125     4.327     4.045  0.8641  0.5033  0.0000
 
              Baa    -0.0112    -0.588    -0.210    -0.196  0.0000  0.0000  1.0000
    11 Cl(35) Bbb     0.0005     0.025     0.009     0.008  1.0000  0.0013  0.0000
              Bcc     0.0108     0.563     0.201     0.188 -0.0013  1.0000 -0.0000
 
              Baa    -0.0230   -12.254    -4.372    -4.087  0.5033  0.8641 -0.0000
    12 H(1)   Bbb     0.0003     0.162     0.058     0.054  0.0000  0.0000  1.0000
              Bcc     0.0227    12.091     4.314     4.033  0.8641 -0.5033  0.0000
 

 ---------------------------------------------------------------------------------

 Calling FoFJK, ICntrl=      2127 FMM=F ISym2X=1 I1Cent= 0 IOpClX= 1 NMat=1 NMatS=1 NMatT=0.
 ***** Axes restored to original set *****
 -------------------------------------------------------------------
 Center     Atomic                   Forces (Hartrees/Bohr)
 Number     Number              X              Y              Z
 -------------------------------------------------------------------
      1        6           0.031379981   -0.016836794    0.000000000
      2        6          -0.049576701   -0.006564371   -0.000000000
      3        6           0.069390029   -0.021130798    0.000000000
      4        6          -0.003618587    0.001794620   -0.000000000
      5        6           0.055766644   -0.046841523   -0.000000000
      6        6          -0.021627794    0.044921647    0.000000000
      7       17          -0.012998677   -0.013601213   -0.000000000
      8       17          -0.015390979    0.008329327   -0.000000000
      9       17           0.004281598    0.018306148    0.000000000
     10        1          -0.010719423   -0.004588376   -0.000000000
     11       17          -0.044854002    0.024281985    0.000000000
     12        1          -0.002032091    0.011929348    0.000000000
 -------------------------------------------------------------------
 Cartesian Forces:  Max     0.069390029 RMS     0.023998984

 GradGradGradGradGradGradGradGradGradGradGradGradGradGradGradGradGradGrad
 Berny optimization.
 FormGI is forming the generalized inverse of G from B-inverse, IUseBI=4.
 Internal  Forces:  Max     0.051004865 RMS     0.012798660
 Search for a local minimum.
 Step number   1 out of a maximum of   64
 All quantities printed in internal units (Hartrees-Bohrs-Radians)
 Mixed Optimization -- RFO/linear search
 Second derivative matrix not updated -- first step.
 ITU=  0
     Eigenvalues ---    0.01993   0.02019   0.02048   0.02059   0.02092
     Eigenvalues ---    0.02120   0.02122   0.02126   0.02131   0.16000
     Eigenvalues ---    0.16000   0.18126   0.23477   0.23493   0.25000
     Eigenvalues ---    0.25000   0.25000   0.25000   0.25000   0.33767
     Eigenvalues ---    0.33847   0.34413   0.34413   0.35360   0.41520
     Eigenvalues ---    0.41684   0.44796   0.45451   0.45925   0.46108
 RFO step:  Lambda=-2.88034263D-02 EMin= 1.99334128D-02
 Linear search not attempted -- first point.
 Maximum step size (   0.300) exceeded in Quadratic search.
    -- Step size scaled by   0.924
 Iteration  1 RMS(Cart)=  0.04072611 RMS(Int)=  0.00337101
 Iteration  2 RMS(Cart)=  0.00338336 RMS(Int)=  0.00018859
 Iteration  3 RMS(Cart)=  0.00000017 RMS(Int)=  0.00018859
 ClnCor:  largest displacement from symmetrization is 6.15D-09 for atom    10.
 Variable       Old X    -DE/DX   Delta X   Delta X   Delta X     New X
                                 (Linear)    (Quad)   (Total)
    R1        2.65925  -0.00663   0.00000  -0.01253  -0.01282   2.64642
    R2        2.65925  -0.00649   0.00000  -0.01227  -0.01256   2.64669
    R3        3.22094   0.01750   0.00000   0.04230   0.04230   3.26324
    R4        2.64214   0.03634   0.00000   0.06881   0.06881   2.71095
    R5        3.23639   0.01824   0.00000   0.04521   0.04521   3.28160
    R6        2.63962  -0.01688   0.00000  -0.03221  -0.03191   2.60771
    R7        2.07590  -0.01155   0.00000  -0.02907  -0.02907   2.04683
    R8        2.63964  -0.01703   0.00000  -0.03249  -0.03219   2.60744
    R9        3.64483  -0.05100   0.00000  -0.22441  -0.22441   3.42042
   R10        2.64217   0.03632   0.00000   0.06879   0.06878   2.71095
   R11        2.07725  -0.01200   0.00000  -0.03025  -0.03025   2.04699
   R12        3.23639   0.01826   0.00000   0.04525   0.04525   3.28164
    A1        2.07120   0.00541   0.00000   0.02112   0.02052   2.09172
    A2        2.10599  -0.00270   0.00000  -0.01055  -0.01025   2.09574
    A3        2.10599  -0.00271   0.00000  -0.01057  -0.01027   2.09572
    A4        2.10527  -0.00143   0.00000  -0.00230  -0.00260   2.10266
    A5        2.09585   0.00807   0.00000   0.02553   0.02568   2.12153
    A6        2.08207  -0.00664   0.00000  -0.02323  -0.02308   2.05899
    A7        2.09551  -0.01339   0.00000  -0.04857  -0.04827   2.04724
    A8        2.10272   0.00503   0.00000   0.01616   0.01601   2.11873
    A9        2.08495   0.00835   0.00000   0.03241   0.03226   2.11721
   A10        2.09364   0.02422   0.00000   0.08063   0.08120   2.17484
   A11        2.09477  -0.01212   0.00000  -0.04033  -0.04062   2.05415
   A12        2.09477  -0.01211   0.00000  -0.04030  -0.04058   2.05419
   A13        2.09549  -0.01334   0.00000  -0.04842  -0.04812   2.04737
   A14        2.08496   0.00833   0.00000   0.03232   0.03217   2.11713
   A15        2.10274   0.00502   0.00000   0.01610   0.01595   2.11869
   A16        2.10527  -0.00147   0.00000  -0.00244  -0.00274   2.10253
   A17        2.09585   0.00809   0.00000   0.02560   0.02575   2.12159
   A18        2.08207  -0.00662   0.00000  -0.02315  -0.02300   2.05906
    D1       -0.00000  -0.00000   0.00000   0.00000   0.00000   0.00000
    D2        3.14159   0.00000   0.00000   0.00000   0.00000   3.14159
    D3        3.14159  -0.00000   0.00000   0.00000   0.00000   3.14159
    D4       -0.00000  -0.00000   0.00000   0.00000   0.00000   0.00000
    D5        0.00000  -0.00000   0.00000   0.00000   0.00000   0.00000
    D6        3.14159   0.00000   0.00000  -0.00000   0.00000   3.14159
    D7        3.14159   0.00000   0.00000   0.00000   0.00000   3.14159
    D8        0.00000   0.00000   0.00000  -0.00000   0.00000   0.00000
    D9       -0.00000  -0.00000   0.00000  -0.00000   0.00000   0.00000
   D10        3.14159   0.00000   0.00000  -0.00000   0.00000   3.14159
   D11        3.14159  -0.00000   0.00000  -0.00000   0.00000   3.14159
   D12       -0.00000   0.00000   0.00000  -0.00000   0.00000   0.00000
   D13        0.00000  -0.00000   0.00000   0.00000  -0.00000   0.00000
   D14        3.14159  -0.00000   0.00000   0.00000   0.00000   3.14159
   D15        3.14159   0.00000   0.00000  -0.00000   0.00000   3.14159
   D16       -0.00000   0.00000   0.00000   0.00000   0.00000   0.00000
   D17       -0.00000   0.00000   0.00000   0.00000   0.00000   0.00000
   D18        3.14159  -0.00000   0.00000   0.00000   0.00000   3.14159
   D19        3.14159  -0.00000   0.00000  -0.00000   0.00000   3.14159
   D20        0.00000  -0.00000   0.00000  -0.00000   0.00000   0.00000
   D21        0.00000  -0.00000   0.00000  -0.00000   0.00000   0.00000
   D22        3.14159   0.00000   0.00000   0.00000   0.00000   3.14159
   D23        3.14159  -0.00000   0.00000  -0.00000   0.00000   3.14159
   D24       -0.00000   0.00000   0.00000   0.00000   0.00000   0.00000
         Item               Value     Threshold  Converged?
 Maximum Force            0.051005     0.000450     NO 
 RMS     Force            0.012799     0.000300     NO 
 Maximum Displacement     0.234997     0.001800     NO 
 RMS     Displacement     0.043577     0.001200     NO 
 Predicted change in Energy=-1.561599D-02
 GradGradGradGradGradGradGradGradGradGradGradGradGradGradGradGradGradGrad

                          Input orientation:                          
 ---------------------------------------------------------------------
 Center     Atomic      Atomic             Coordinates (Angstroms)
 Number     Number       Type             X           Y           Z
 ---------------------------------------------------------------------
      1          6           0       -3.178958    0.183077   -0.000000
      2          6           0       -1.984842    0.914707    0.000000
      3          6           0       -0.718549    0.240538    0.000000
      4          6           0       -0.736183   -1.139288   -0.000000
      5          6           0       -1.881744   -1.908405   -0.000000
      6          6           0       -3.138659   -1.216911   -0.000000
      7         17           0       -4.591639   -2.167971   -0.000000
      8         17           0       -4.697571    1.005123   -0.000000
      9         17           0       -1.983046    2.651254    0.000000
     10          1           0        0.213994    0.791491    0.000000
     11         17           0        0.855588   -2.000910   -0.000000
     12          1           0       -1.833091   -2.990534   -0.000000
 ---------------------------------------------------------------------
                    Distance matrix (angstroms):
                    1          2          3          4          5
     1  C    0.000000
     2  C    1.400427   0.000000
     3  C    2.461081   1.434574   0.000000
     4  C    2.777733   2.403756   1.379939   0.000000
     5  C    2.461110   2.824994   2.443558   1.379800   0.000000
     6  C    1.400568   2.423858   2.825082   2.403729   1.434573
     7  Cl   2.742826   4.037114   4.560893   3.990329   2.722298
     8  Cl   1.726831   2.714235   4.051816   4.504564   4.051855
     9  Cl   2.742646   1.736549   2.722225   3.990348   4.560785
    10  H    3.447070   2.202286   1.083137   2.151916   3.417828
    11  Cl   4.587740   4.070487   2.738977   1.810008   2.738894
    12  H    3.447197   3.908188   3.417898   2.151817   1.083222
                    6          7          8          9         10
     6  C    0.000000
     7  Cl   1.736567   0.000000
     8  Cl   2.714341   3.174862   0.000000
     9  Cl   4.037096   5.479935   3.174649   0.000000
    10  H    3.908191   5.643804   4.916209   2.878490   0.000000
    11  Cl   4.070462   5.449788   6.314571   5.449815   2.865161
    12  H    2.202327   2.878576   4.916353   5.643781   4.300496
                   11         12
    11  Cl   0.000000
    12  H    2.865021   0.000000
 Stoichiometry    C6H2Cl4(1-,2)
 Framework group  CS[SG(C6H2Cl4)]
 Deg. of freedom    21
 Full point group                 CS      NOp   2
 Largest Abelian subgroup         CS      NOp   2
 Largest concise Abelian subgroup C1      NOp   1
                         Standard orientation:                         
 ---------------------------------------------------------------------
 Center     Atomic      Atomic             Coordinates (Angstroms)
 Number     Number       Type             X           Y           Z
 ---------------------------------------------------------------------
      1          6           0       -0.000000    0.948690    0.000000
      2          6           0       -1.211894    0.246901    0.000000
      3          6           0       -1.221890   -1.187639    0.000000
      4          6           0       -0.000075   -1.829043    0.000000
      5          6           0        1.221668   -1.187800   -0.000000
      6          6           0        1.211964    0.246740   -0.000000
      7         17           0        2.740066    1.071708   -0.000000
      8         17           0        0.000078    2.675521   -0.000000
      9         17           0       -2.739870    1.072062    0.000000
     10          1           0       -2.150366   -1.745418    0.000000
     11         17           0       -0.000180   -3.639050    0.000000
     12          1           0        2.150130   -1.745768   -0.000000
 ---------------------------------------------------------------------
 Rotational constants (GHZ):           0.8347194           0.5703647           0.3388370
 Standard basis: 6-311++G(d,p) (5D, 7F)
 There are   206 symmetry adapted cartesian basis functions of A'  symmetry.
 There are    70 symmetry adapted cartesian basis functions of A"  symmetry.
 There are   196 symmetry adapted basis functions of A'  symmetry.
 There are    70 symmetry adapted basis functions of A"  symmetry.
   266 basis functions,   446 primitive gaussians,   276 cartesian basis functions
    54 alpha electrons       53 beta electrons
       nuclear repulsion energy       825.6414625478 Hartrees.
 NAtoms=   12 NActive=   12 NUniq=   12 SFac= 1.00D+00 NAtFMM=   60 NAOKFM=F Big=F
 Integral buffers will be    131072 words long.
 Raffenetti 2 integral format.
 Two-electron integral symmetry is turned on.
 One-electron integrals computed using PRISM.
 NBasis=   266 RedAO= T EigKep=  1.28D-06  NBF=   196    70
 NBsUse=   265 1.00D-06 EigRej=  8.37D-07 NBFU=   195    70
 Initial guess from the checkpoint file:  "frequency_chks/1235ClBzAnionRadical_Freq.chk"
 B after Tr=    -0.000000    0.000000   -0.000000
         Rot=    1.000000    0.000000    0.000000    0.000026 Ang=   0.00 deg.
 Initial guess orbital symmetries:
 Alpha Orbitals:
       Occupied  (A') (A') (A') (A') (A') (A') (A') (A') (A') (A')
                 (A') (A') (A') (A') (A') (A") (A') (A') (A') (A')
                 (A') (A") (A") (A") (A') (A') (A') (A') (A') (A')
                 (A') (A') (A') (A') (A') (A') (A') (A') (A") (A')
                 (A') (A') (A') (A") (A") (A") (A') (A') (A') (A")
                 (A') (A") (A") (A")
       Virtual   (A') (A') (A') (A') (A') (A') (A") (A") (A') (A')
                 (A") (A') (A") (A') (A') (A") (A') (A') (A') (A")
                 (A') (A') (A") (A') (A') (A') (A") (A') (A") (A")
                 (A') (A') (A') (A") (A') (A') (A") (A') (A') (A')
                 (A') (A') (A') (A') (A') (A') (A') (A') (A') (A')
                 (A') (A') (A') (A') (A') (A") (A') (A") (A") (A')
                 (A') (A') (A") (A') (A') (A') (A') (A") (A') (A")
                 (A") (A") (A') (A") (A') (A') (A") (A') (A') (A')
                 (A') (A') (A") (A') (A') (A') (A') (A") (A') (A')
                 (A") (A") (A") (A') (A") (A") (A') (A') (A') (A')
                 (A') (A') (A") (A') (A') (A') (A") (A') (A') (A')
                 (A") (A') (A") (A') (A') (A') (A') (A') (A") (A")
                 (A') (A") (A') (A') (A') (A') (A') (A") (A") (A')
                 (A') (A') (A') (A") (A') (A") (A") (A') (A') (A")
                 (A') (A') (A") (A') (A') (A") (A") (A") (A') (A')
                 (A") (A") (A') (A') (A') (A') (A') (A') (A') (A')
                 (A') (A') (A") (A') (A') (A') (A') (A") (A") (A")
                 (A") (A') (A") (A') (A') (A') (A') (A') (A') (A')
                 (A') (A') (A') (A') (A') (A') (A') (A') (A') (A')
                 (A') (A') (A') (A') (A') (A") (A") (A") (A") (A')
                 (A') (A') (A') (A') (A') (A') (A') (A') (A') (A')
                 (A')
 Beta  Orbitals:
       Occupied  (A') (A') (A') (A') (A') (A') (A') (A') (A') (A')
                 (A') (A') (A') (A') (A') (A") (A') (A') (A') (A')
                 (A') (A") (A') (A') (A") (A") (A') (A') (A') (A')
                 (A') (A') (A') (A') (A') (A') (A') (A') (A') (A')
                 (A") (A') (A') (A") (A") (A") (A') (A') (A') (A')
                 (A") (A") (A")
       Virtual   (A') (A') (A') (A') (A') (A") (A') (A") (A") (A')
                 (A") (A') (A') (A') (A") (A') (A") (A') (A') (A')
                 (A") (A") (A') (A') (A') (A') (A") (A') (A") (A')
                 (A") (A') (A') (A') (A') (A") (A') (A") (A') (A')
                 (A') (A') (A') (A') (A') (A') (A') (A') (A') (A')
                 (A') (A') (A') (A') (A') (A') (A") (A') (A") (A")
                 (A') (A') (A') (A") (A') (A') (A') (A') (A") (A')
                 (A") (A") (A') (A") (A") (A') (A') (A") (A') (A')
                 (A') (A') (A') (A") (A') (A') (A') (A') (A") (A')
                 (A') (A") (A") (A") (A') (A") (A") (A') (A') (A')
                 (A') (A') (A') (A") (A') (A') (A') (A") (A') (A')
                 (A') (A") (A') (A") (A') (A') (A') (A') (A') (A")
                 (A") (A') (A') (A") (A') (A') (A') (A') (A") (A")
                 (A') (A') (A') (A') (A") (A') (A") (A') (A") (A')
                 (A") (A') (A') (A") (A') (A') (A") (A") (A") (A')
                 (A') (A") (A") (A') (A') (A') (A') (A') (A') (A')
                 (A') (A') (A') (A') (A") (A') (A') (A') (A") (A")
                 (A") (A") (A') (A") (A') (A') (A') (A') (A') (A')
                 (A') (A') (A') (A') (A') (A') (A') (A') (A') (A')
                 (A') (A') (A') (A') (A') (A') (A") (A") (A") (A")
                 (A') (A') (A') (A') (A') (A') (A') (A') (A') (A')
                 (A') (A')
 Initial guess <Sx>= 0.0000 <Sy>= 0.0000 <Sz>= 0.5000 <S**2>= 0.7597 S= 0.5048
 ExpMin= 3.60D-02 ExpMax= 1.06D+05 ExpMxC= 3.62D+03 IAcc=3 IRadAn=         5 AccDes= 0.00D+00
 Harris functional with IExCor= 1009 and IRadAn=       5 diagonalized for initial guess.
 HarFok:  IExCor= 1009 AccDes= 0.00D+00 IRadAn=         5 IDoV= 1 UseB2=F ITyADJ=14
 ICtDFT=  3500011 ScaDFX=  1.000000  1.000000  1.000000  1.000000
 FoFCou: FMM=F IPFlag=           0 FMFlag=      100000 FMFlg1=           0
         NFxFlg=           0 DoJE=T BraDBF=F KetDBF=T FulRan=T
         wScrn=  0.000000 ICntrl=       500 IOpCl=  0 I1Cent=   200000004 NGrid=           0
         NMat0=    1 NMatS0=      1 NMatT0=    0 NMatD0=    1 NMtDS0=    0 NMtDT0=    0
 Petite list used in FoFCou.
 Keep R1 and R2 ints in memory in symmetry-blocked form, NReq=994759113.
 Requested convergence on RMS density matrix=1.00D-08 within 128 cycles.
 Requested convergence on MAX density matrix=1.00D-06.
 Requested convergence on             energy=1.00D-06.
 No special actions if energy rises.
 SCF Done:  E(UM062X) =  -2070.59119335     A.U. after   22 cycles
            NFock= 22  Conv=0.60D-08     -V/T= 2.0023
 <Sx>= 0.0000 <Sy>= 0.0000 <Sz>= 0.5000 <S**2>= 0.7602 S= 0.5051
 <L.S>=  0.00000000000    
 Annihilation of the first spin contaminant:
 S**2 before annihilation     0.7602,   after     0.7501
 Calling FoFJK, ICntrl=      2127 FMM=F ISym2X=1 I1Cent= 0 IOpClX= 1 NMat=1 NMatS=1 NMatT=0.
 ***** Axes restored to original set *****
 -------------------------------------------------------------------
 Center     Atomic                   Forces (Hartrees/Bohr)
 Number     Number              X              Y              Z
 -------------------------------------------------------------------
      1        6           0.016157940   -0.008702879   -0.000000000
      2        6          -0.016432198   -0.005257338    0.000000000
      3        6           0.016166454   -0.001411850   -0.000000000
      4        6           0.006747306   -0.003678995   -0.000000000
      5        6           0.010045831   -0.012785673   -0.000000000
      6        6          -0.004608372    0.016582083    0.000000000
      7       17          -0.004062323   -0.004250575    0.000000000
      8       17          -0.007196847    0.003887958    0.000000000
      9       17           0.001342403    0.005734249    0.000000000
     10        1          -0.003197909   -0.000330428    0.000000000
     11       17          -0.013486948    0.007303907    0.000000000
     12        1          -0.001475338    0.002909542    0.000000000
 -------------------------------------------------------------------
 Cartesian Forces:  Max     0.016582083 RMS     0.007283669

 GradGradGradGradGradGradGradGradGradGradGradGradGradGradGradGradGradGrad
 Berny optimization.
 Using GEDIIS/GDIIS optimizer.
 FormGI is forming the generalized inverse of G from B-inverse, IUseBI=4.
 Internal  Forces:  Max     0.015337692 RMS     0.003591598
 Search for a local minimum.
 Step number   2 out of a maximum of   64
 All quantities printed in internal units (Hartrees-Bohrs-Radians)
 Mixed Optimization -- RFO/linear search
 Update second derivatives using D2CorX and points    1    2
 DE= -1.72D-02 DEPred=-1.56D-02 R= 1.10D+00
 TightC=F SS=  1.41D+00  RLast= 3.00D-01 DXNew= 5.0454D-01 8.9997D-01
 Trust test= 1.10D+00 RLast= 3.00D-01 DXMaxT set to 5.05D-01
 ITU=  1  0
 Use linear search instead of GDIIS.
     Eigenvalues ---    0.01993   0.02019   0.02046   0.02057   0.02091
     Eigenvalues ---    0.02120   0.02122   0.02127   0.02131   0.15751
     Eigenvalues ---    0.16000   0.16946   0.23491   0.23605   0.24828
     Eigenvalues ---    0.25000   0.25000   0.25000   0.25019   0.33059
     Eigenvalues ---    0.33804   0.34005   0.34413   0.35137   0.41753
     Eigenvalues ---    0.41805   0.44798   0.45532   0.45962   0.46113
 RFO step:  Lambda=-5.67757547D-04 EMin= 1.99334128D-02
 Quartic linear search produced a step of  0.31005.
 Iteration  1 RMS(Cart)=  0.01260958 RMS(Int)=  0.00007877
 Iteration  2 RMS(Cart)=  0.00005585 RMS(Int)=  0.00006462
 Iteration  3 RMS(Cart)=  0.00000000 RMS(Int)=  0.00006462
 ClnCor:  largest displacement from symmetrization is 7.58D-11 for atom     9.
 Variable       Old X    -DE/DX   Delta X   Delta X   Delta X     New X
                                 (Linear)    (Quad)   (Total)
    R1        2.64642  -0.00620  -0.00398  -0.01455  -0.01862   2.62780
    R2        2.64669  -0.00617  -0.00389  -0.01456  -0.01855   2.62814
    R3        3.26324   0.00818   0.01311   0.01457   0.02768   3.29092
    R4        2.71095   0.00843   0.02133  -0.00062   0.02071   2.73166
    R5        3.28160   0.00574   0.01402   0.00496   0.01898   3.30058
    R6        2.60771   0.00008  -0.00989   0.01253   0.00274   2.61044
    R7        2.04683  -0.00292  -0.00901  -0.00043  -0.00945   2.03738
    R8        2.60744   0.00006  -0.00998   0.01258   0.00270   2.61014
    R9        3.42042  -0.01534  -0.06958  -0.01519  -0.08476   3.33566
   R10        2.71095   0.00843   0.02133  -0.00061   0.02072   2.73167
   R11        2.04699  -0.00297  -0.00938  -0.00021  -0.00959   2.03740
   R12        3.28164   0.00573   0.01403   0.00491   0.01894   3.30058
    A1        2.09172   0.00302   0.00636   0.00511   0.01127   2.10299
    A2        2.09574  -0.00150  -0.00318  -0.00250  -0.00558   2.09016
    A3        2.09572  -0.00152  -0.00318  -0.00261  -0.00569   2.09003
    A4        2.10266   0.00044  -0.00081   0.00227   0.00136   2.10403
    A5        2.12153   0.00198   0.00796   0.00071   0.00873   2.13026
    A6        2.05899  -0.00241  -0.00716  -0.00299  -0.01009   2.04890
    A7        2.04724  -0.00352  -0.01496   0.00116  -0.01370   2.03355
    A8        2.11873   0.00038   0.00496  -0.00822  -0.00331   2.11543
    A9        2.11721   0.00313   0.01000   0.00706   0.01700   2.13421
   A10        2.17484   0.00315   0.02518  -0.01196   0.01341   2.18825
   A11        2.05415  -0.00158  -0.01259   0.00596  -0.00673   2.04742
   A12        2.05419  -0.00157  -0.01258   0.00600  -0.00668   2.04751
   A13        2.04737  -0.00351  -0.01492   0.00115  -0.01366   2.03371
   A14        2.11713   0.00313   0.00997   0.00707   0.01700   2.13413
   A15        2.11869   0.00038   0.00494  -0.00823  -0.00334   2.11535
   A16        2.10253   0.00042  -0.00085   0.00227   0.00131   2.10385
   A17        2.12159   0.00197   0.00798   0.00068   0.00871   2.13030
   A18        2.05906  -0.00240  -0.00713  -0.00294  -0.01003   2.04903
    D1       -0.00000  -0.00000   0.00000  -0.00000   0.00000   0.00000
    D2        3.14159   0.00000   0.00000  -0.00000   0.00000   3.14159
    D3        3.14159  -0.00000   0.00000   0.00000   0.00000   3.14159
    D4       -0.00000  -0.00000   0.00000   0.00000   0.00000   0.00000
    D5       -0.00000  -0.00000   0.00000  -0.00000   0.00000   0.00000
    D6        3.14159  -0.00000   0.00000   0.00000   0.00000   3.14159
    D7        3.14159   0.00000   0.00000  -0.00000   0.00000   3.14159
    D8        0.00000   0.00000   0.00000  -0.00000   0.00000   0.00000
    D9        0.00000   0.00000   0.00000   0.00000  -0.00000   0.00000
   D10        3.14159   0.00000   0.00000  -0.00000   0.00000   3.14159
   D11        3.14159   0.00000   0.00000   0.00000   0.00000   3.14159
   D12       -0.00000   0.00000   0.00000   0.00000   0.00000   0.00000
   D13       -0.00000  -0.00000   0.00000  -0.00000   0.00000   0.00000
   D14        3.14159  -0.00000   0.00000  -0.00000   0.00000   3.14159
   D15        3.14159  -0.00000   0.00000   0.00000   0.00000   3.14159
   D16        0.00000  -0.00000   0.00000   0.00000   0.00000   0.00000
   D17        0.00000  -0.00000   0.00000  -0.00000   0.00000   0.00000
   D18        3.14159   0.00000   0.00000  -0.00000   0.00000   3.14159
   D19        3.14159  -0.00000   0.00000  -0.00000   0.00000   3.14159
   D20        0.00000  -0.00000   0.00000  -0.00000   0.00000   0.00000
   D21        0.00000   0.00000   0.00000   0.00000  -0.00000   0.00000
   D22        3.14159   0.00000   0.00000  -0.00000   0.00000   3.14159
   D23        3.14159   0.00000   0.00000   0.00000   0.00000   3.14159
   D24       -0.00000   0.00000   0.00000   0.00000   0.00000   0.00000
         Item               Value     Threshold  Converged?
 Maximum Force            0.015338     0.000450     NO 
 RMS     Force            0.003592     0.000300     NO 
 Maximum Displacement     0.067592     0.001800     NO 
 RMS     Displacement     0.012609     0.001200     NO 
 Predicted change in Energy=-1.553107D-03
 GradGradGradGradGradGradGradGradGradGradGradGradGradGradGradGradGradGrad

                          Input orientation:                          
 ---------------------------------------------------------------------
 Center     Atomic      Atomic             Coordinates (Angstroms)
 Number     Number       Type             X           Y           Z
 ---------------------------------------------------------------------
      1          6           0       -3.167889    0.177096    0.000000
      2          6           0       -1.986279    0.910229    0.000000
      3          6           0       -0.705598    0.239839   -0.000000
      4          6           0       -0.732522   -1.141285   -0.000000
      5          6           0       -1.874083   -1.918861   -0.000000
      6          6           0       -3.135723   -1.213283    0.000000
      7         17           0       -4.594152   -2.174306    0.000000
      8         17           0       -4.699422    1.006047    0.000000
      9         17           0       -1.979048    2.656805    0.000000
     10          1           0        0.216948    0.797773   -0.000000
     11         17           0        0.819819   -1.981525   -0.000000
     12          1           0       -1.836751   -2.996360   -0.000000
 ---------------------------------------------------------------------
                    Distance matrix (angstroms):
                    1          2          3          4          5
     1  C    0.000000
     2  C    1.390571   0.000000
     3  C    2.463091   1.445534   0.000000
     4  C    2.769322   2.404292   1.381387   0.000000
     5  C    2.463122   2.831315   2.454658   1.381227   0.000000
     6  C    1.390751   2.414648   2.831444   2.404279   1.445537
     7  Cl   2.750148   4.039227   4.577002   3.997414   2.732037
     8  Cl   1.741480   2.714834   4.066657   4.510801   4.066648
     9  Cl   2.749964   1.746591   2.731922   3.997414   4.576871
    10  H    3.441274   2.206095   1.078138   2.159037   3.428194
    11  Cl   4.534475   4.029446   2.694691   1.765154   2.694631
    12  H    3.441330   3.909450   3.428192   2.158848   1.078146
                    6          7          8          9         10
     6  C    0.000000
     7  Cl   1.746591   0.000000
     8  Cl   2.714881   3.182095   0.000000
     9  Cl   4.039243   5.493488   3.182049   0.000000
    10  H    3.909571   5.655081   4.920779   2.877221   0.000000
    11  Cl   4.029456   5.417403   6.275955   5.417358   2.843933
    12  H    2.206058   2.877331   4.920787   5.654956   4.314293
                   11         12
    11  Cl   0.000000
    12  H    2.843810   0.000000
 Stoichiometry    C6H2Cl4(1-,2)
 Framework group  CS[SG(C6H2Cl4)]
 Deg. of freedom    21
 Full point group                 CS      NOp   2
 Largest Abelian subgroup         CS      NOp   2
 Largest concise Abelian subgroup C1      NOp   1
                         Standard orientation:                         
 ---------------------------------------------------------------------
 Center     Atomic      Atomic             Coordinates (Angstroms)
 Number     Number       Type             X           Y           Z
 ---------------------------------------------------------------------
      1          6           0        0.000000    0.931886   -0.000000
      2          6           0       -1.207274    0.241831    0.000000
      3          6           0       -1.227469   -1.203561    0.000000
      4          6           0       -0.000101   -1.837436    0.000000
      5          6           0        1.227189   -1.203759   -0.000000
      6          6           0        1.207374    0.241642   -0.000000
      7         17           0        2.746845    1.066632   -0.000000
      8         17           0        0.000187    2.673366   -0.000000
      9         17           0       -2.746642    1.067014    0.000000
     10          1           0       -2.157334   -1.749209    0.000000
     11         17           0       -0.000268   -3.602589    0.000000
     12          1           0        2.156959   -1.749584   -0.000000
 ---------------------------------------------------------------------
 Rotational constants (GHZ):           0.8309876           0.5765610           0.3403897
 Standard basis: 6-311++G(d,p) (5D, 7F)
 There are   206 symmetry adapted cartesian basis functions of A'  symmetry.
 There are    70 symmetry adapted cartesian basis functions of A"  symmetry.
 There are   196 symmetry adapted basis functions of A'  symmetry.
 There are    70 symmetry adapted basis functions of A"  symmetry.
   266 basis functions,   446 primitive gaussians,   276 cartesian basis functions
    54 alpha electrons       53 beta electrons
       nuclear repulsion energy       826.4971994899 Hartrees.
 NAtoms=   12 NActive=   12 NUniq=   12 SFac= 1.00D+00 NAtFMM=   60 NAOKFM=F Big=F
 Integral buffers will be    131072 words long.
 Raffenetti 2 integral format.
 Two-electron integral symmetry is turned on.
 One-electron integrals computed using PRISM.
 NBasis=   266 RedAO= T EigKep=  1.22D-06  NBF=   196    70
 NBsUse=   265 1.00D-06 EigRej=  8.48D-07 NBFU=   195    70
 Initial guess from the checkpoint file:  "frequency_chks/1235ClBzAnionRadical_Freq.chk"
 B after Tr=     0.000000    0.000000    0.000000
         Rot=    1.000000   -0.000000    0.000000    0.000009 Ang=   0.00 deg.
 Initial guess orbital symmetries:
 Alpha Orbitals:
       Occupied  (A') (A') (A') (A') (A') (A') (A') (A') (A') (A')
                 (A') (A') (A') (A') (A') (A") (A') (A') (A') (A')
                 (A') (A") (A") (A") (A') (A') (A') (A') (A') (A')
                 (A') (A') (A') (A') (A') (A') (A') (A') (A') (A")
                 (A') (A') (A') (A") (A") (A") (A') (A') (A') (A')
                 (A") (A") (A") (A")
       Virtual   (A') (A') (A') (A') (A') (A') (A") (A") (A') (A')
                 (A") (A') (A") (A') (A') (A") (A') (A') (A') (A")
                 (A') (A') (A") (A') (A') (A') (A") (A') (A") (A")
                 (A') (A') (A') (A") (A') (A') (A") (A') (A') (A')
                 (A') (A') (A') (A') (A') (A') (A') (A') (A') (A')
                 (A') (A') (A') (A') (A') (A") (A') (A") (A") (A')
                 (A') (A') (A") (A') (A') (A') (A') (A") (A') (A")
                 (A") (A") (A') (A") (A') (A') (A") (A') (A') (A')
                 (A') (A') (A") (A') (A') (A') (A") (A') (A') (A')
                 (A") (A") (A") (A") (A') (A") (A') (A') (A') (A')
                 (A') (A") (A') (A') (A') (A') (A") (A') (A') (A')
                 (A") (A') (A") (A') (A') (A') (A') (A') (A") (A')
                 (A") (A") (A') (A') (A') (A') (A') (A") (A") (A')
                 (A') (A') (A") (A') (A') (A") (A") (A') (A') (A")
                 (A') (A') (A") (A') (A') (A") (A") (A") (A') (A')
                 (A") (A") (A') (A') (A') (A') (A') (A') (A') (A')
                 (A') (A') (A") (A') (A') (A') (A') (A") (A") (A")
                 (A") (A') (A") (A') (A') (A') (A') (A') (A') (A')
                 (A') (A') (A') (A') (A') (A') (A') (A') (A') (A')
                 (A') (A') (A') (A') (A') (A") (A") (A") (A") (A')
                 (A') (A') (A') (A') (A') (A') (A') (A') (A') (A')
                 (A')
 Beta  Orbitals:
       Occupied  (A') (A') (A') (A') (A') (A') (A') (A') (A') (A')
                 (A') (A') (A') (A') (A') (A") (A') (A') (A') (A')
                 (A") (A') (A') (A') (A") (A") (A') (A') (A') (A')
                 (A') (A') (A') (A') (A') (A') (A') (A') (A') (A')
                 (A") (A') (A') (A") (A") (A") (A') (A') (A') (A')
                 (A") (A") (A")
       Virtual   (A') (A') (A') (A') (A') (A") (A") (A') (A") (A')
                 (A") (A') (A') (A") (A') (A') (A") (A') (A') (A')
                 (A") (A") (A') (A') (A') (A') (A") (A') (A') (A")
                 (A") (A') (A') (A') (A') (A") (A') (A") (A') (A')
                 (A') (A') (A') (A') (A') (A') (A') (A') (A') (A')
                 (A') (A') (A') (A') (A') (A') (A") (A') (A") (A")
                 (A') (A') (A') (A") (A') (A') (A') (A') (A") (A')
                 (A") (A") (A") (A") (A') (A') (A') (A") (A') (A')
                 (A') (A') (A') (A") (A') (A') (A') (A') (A") (A')
                 (A") (A') (A") (A") (A") (A') (A") (A') (A') (A')
                 (A') (A') (A') (A") (A') (A') (A') (A") (A') (A')
                 (A') (A") (A') (A') (A') (A") (A') (A') (A') (A")
                 (A') (A") (A') (A") (A') (A') (A') (A') (A") (A")
                 (A') (A') (A') (A") (A') (A') (A") (A") (A') (A')
                 (A") (A') (A') (A") (A') (A') (A") (A") (A") (A')
                 (A') (A") (A") (A') (A') (A') (A') (A') (A') (A')
                 (A') (A') (A') (A") (A') (A') (A') (A') (A") (A")
                 (A") (A") (A') (A") (A') (A') (A') (A') (A') (A')
                 (A') (A') (A') (A') (A') (A') (A') (A') (A') (A')
                 (A') (A') (A') (A') (A') (A') (A") (A") (A") (A")
                 (A') (A') (A') (A') (A') (A') (A') (A') (A') (A')
                 (A') (A')
 Initial guess <Sx>= 0.0000 <Sy>= 0.0000 <Sz>= 0.5000 <S**2>= 0.7601 S= 0.5051
 ExpMin= 3.60D-02 ExpMax= 1.06D+05 ExpMxC= 3.62D+03 IAcc=3 IRadAn=         5 AccDes= 0.00D+00
 Harris functional with IExCor= 1009 and IRadAn=       5 diagonalized for initial guess.
[...]
    R7        2.03792  -0.00002   0.00000  -0.00003  -0.00003   2.03790
    R8        2.61083  -0.00001   0.00000   0.00011   0.00011   2.61094
    R9        3.34719  -0.00000   0.00000   0.00003   0.00003   3.34723
   R10        2.73528  -0.00006   0.00000  -0.00010  -0.00010   2.73518
   R11        2.03795  -0.00002   0.00000  -0.00005  -0.00005   2.03790
   R12        3.30598  -0.00010   0.00000  -0.00054  -0.00054   3.30544
    A1        2.10487   0.00006   0.00000   0.00053   0.00053   2.10540
    A2        2.08921  -0.00003   0.00000  -0.00032  -0.00032   2.08889
    A3        2.08910  -0.00003   0.00000  -0.00020  -0.00020   2.08890
    A4        2.10288  -0.00005   0.00000  -0.00051  -0.00051   2.10237
    A5        2.13496   0.00001   0.00000   0.00017   0.00017   2.13514
    A6        2.04534   0.00004   0.00000   0.00034   0.00034   2.04568
    A7        2.03501   0.00001   0.00000   0.00016   0.00016   2.03517
    A8        2.11168  -0.00002   0.00000  -0.00015  -0.00015   2.11153
    A9        2.13649   0.00001   0.00000  -0.00001  -0.00001   2.13648
   A10        2.18573   0.00004   0.00000   0.00015   0.00015   2.18588
   A11        2.04868  -0.00002   0.00000  -0.00003  -0.00003   2.04866
   A12        2.04877  -0.00002   0.00000  -0.00012  -0.00012   2.04865
   A13        2.03519   0.00001   0.00000  -0.00003  -0.00003   2.03516
   A14        2.13640   0.00001   0.00000   0.00009   0.00009   2.13649
   A15        2.11160  -0.00002   0.00000  -0.00006  -0.00006   2.11154
   A16        2.10269  -0.00005   0.00000  -0.00030  -0.00030   2.10239
   A17        2.13503   0.00001   0.00000   0.00010   0.00010   2.13513
   A18        2.04547   0.00004   0.00000   0.00020   0.00020   2.04567
    D1       -0.00000   0.00000   0.00000   0.00000   0.00000   0.00000
    D2        3.14159  -0.00000   0.00000  -0.00000   0.00000   3.14159
    D3        3.14159   0.00000   0.00000   0.00000   0.00000   3.14159
    D4        0.00000  -0.00000   0.00000  -0.00000   0.00000   0.00000
    D5       -0.00000   0.00000   0.00000   0.00000   0.00000   0.00000
    D6        3.14159   0.00000   0.00000  -0.00000   0.00000   3.14159
    D7        3.14159   0.00000   0.00000   0.00000   0.00000   3.14159
    D8       -0.00000   0.00000   0.00000  -0.00000   0.00000   0.00000
    D9       -0.00000   0.00000   0.00000  -0.00000   0.00000   0.00000
   D10        3.14159  -0.00000   0.00000  -0.00000   0.00000   3.14159
   D11        3.14159   0.00000   0.00000  -0.00000   0.00000   3.14159
   D12        0.00000   0.00000   0.00000  -0.00000  -0.00000   0.00000
   D13        0.00000   0.00000   0.00000   0.00000  -0.00000   0.00000
   D14        3.14159   0.00000   0.00000   0.00000   0.00000   3.14159
   D15        3.14159   0.00000   0.00000   0.00000   0.00000   3.14159
   D16       -0.00000  -0.00000   0.00000   0.00000   0.00000   0.00000
   D17       -0.00000   0.00000   0.00000   0.00000   0.00000   0.00000
   D18        3.14159   0.00000   0.00000   0.00000   0.00000   3.14159
   D19        3.14159   0.00000   0.00000   0.00000   0.00000   3.14159
   D20        0.00000   0.00000   0.00000   0.00000   0.00000   0.00000
   D21        0.00000   0.00000   0.00000  -0.00000   0.00000   0.00000
   D22        3.14159  -0.00000   0.00000   0.00000   0.00000   3.14159
   D23        3.14159  -0.00000   0.00000  -0.00000   0.00000   3.14159
   D24       -0.00000  -0.00000   0.00000   0.00000   0.00000   0.00000
         Item               Value     Threshold  Converged?
 Maximum Force            0.000168     0.000450     YES
 RMS     Force            0.000038     0.000300     YES
 Maximum Displacement     0.000489     0.001800     YES
 RMS     Displacement     0.000146     0.001200     YES
 Predicted change in Energy=-2.060690D-07
 Optimization completed.
    -- Stationary point found.
                           ----------------------------
                           !   Optimized Parameters   !
                           ! (Angstroms and Degrees)  !
 --------------------------                            --------------------------
 ! Name  Definition              Value          Derivative Info.                !
 --------------------------------------------------------------------------------
 ! R1    R(1,2)                  1.3896         -DE/DX =    0.0001              !
 ! R2    R(1,6)                  1.3898         -DE/DX =    0.0001              !
 ! R3    R(1,8)                  1.7478         -DE/DX =    0.0002              !
 ! R4    R(2,3)                  1.4474         -DE/DX =   -0.0001              !
 ! R5    R(2,9)                  1.7495         -DE/DX =   -0.0001              !
 ! R6    R(3,4)                  1.3817         -DE/DX =    0.0                 !
 ! R7    R(3,10)                 1.0784         -DE/DX =    0.0                 !
 ! R8    R(4,5)                  1.3816         -DE/DX =    0.0                 !
 ! R9    R(4,11)                 1.7713         -DE/DX =    0.0                 !
 ! R10   R(5,6)                  1.4474         -DE/DX =   -0.0001              !
 ! R11   R(5,12)                 1.0784         -DE/DX =    0.0                 !
 ! R12   R(6,7)                  1.7495         -DE/DX =   -0.0001              !
 ! A1    A(2,1,6)              120.6004         -DE/DX =    0.0001              !
 ! A2    A(2,1,8)              119.7029         -DE/DX =    0.0                 !
 ! A3    A(6,1,8)              119.6967         -DE/DX =    0.0                 !
 ! A4    A(1,2,3)              120.486          -DE/DX =   -0.0001              !
 ! A5    A(1,2,9)              122.3245         -DE/DX =    0.0                 !
 ! A6    A(3,2,9)              117.1895         -DE/DX =    0.0                 !
 ! A7    A(2,3,4)              116.5977         -DE/DX =    0.0                 !
 ! A8    A(2,3,10)             120.9903         -DE/DX =    0.0                 !
 ! A9    A(4,3,10)             122.412          -DE/DX =    0.0                 !
 ! A10   A(3,4,5)              125.2331         -DE/DX =    0.0                 !
 ! A11   A(3,4,11)             117.3809         -DE/DX =    0.0                 !
 ! A12   A(5,4,11)             117.386          -DE/DX =    0.0                 !
 ! A13   A(4,5,6)              116.6075         -DE/DX =    0.0                 !
 ! A14   A(4,5,12)             122.4068         -DE/DX =    0.0                 !
 ! A15   A(6,5,12)             120.9856         -DE/DX =    0.0                 !
 ! A16   A(1,6,5)              120.4753         -DE/DX =   -0.0001              !
 ! A17   A(1,6,7)              122.3281         -DE/DX =    0.0                 !
 ! A18   A(5,6,7)              117.1967         -DE/DX =    0.0                 !
 ! D1    D(6,1,2,3)              0.0            -DE/DX =    0.0                 !
 ! D2    D(6,1,2,9)            180.0            -DE/DX =    0.0                 !
 ! D3    D(8,1,2,3)            180.0            -DE/DX =    0.0                 !
 ! D4    D(8,1,2,9)              0.0            -DE/DX =    0.0                 !
 ! D5    D(2,1,6,5)              0.0            -DE/DX =    0.0                 !
 ! D6    D(2,1,6,7)            180.0            -DE/DX =    0.0                 !
 ! D7    D(8,1,6,5)            180.0            -DE/DX =    0.0                 !
 ! D8    D(8,1,6,7)              0.0            -DE/DX =    0.0                 !
 ! D9    D(1,2,3,4)              0.0            -DE/DX =    0.0                 !
 ! D10   D(1,2,3,10)           180.0            -DE/DX =    0.0                 !
 ! D11   D(9,2,3,4)            180.0            -DE/DX =    0.0                 !
 ! D12   D(9,2,3,10)             0.0            -DE/DX =    0.0                 !
 ! D13   D(2,3,4,5)              0.0            -DE/DX =    0.0                 !
 ! D14   D(2,3,4,11)           180.0            -DE/DX =    0.0                 !
 ! D15   D(10,3,4,5)           180.0            -DE/DX =    0.0                 !
 ! D16   D(10,3,4,11)            0.0            -DE/DX =    0.0                 !
 ! D17   D(3,4,5,6)              0.0            -DE/DX =    0.0                 !
 ! D18   D(3,4,5,12)           180.0            -DE/DX =    0.0                 !
 ! D19   D(11,4,5,6)           180.0            -DE/DX =    0.0                 !
 ! D20   D(11,4,5,12)            0.0            -DE/DX =    0.0                 !
 ! D21   D(4,5,6,1)              0.0            -DE/DX =    0.0                 !
 ! D22   D(4,5,6,7)            180.0            -DE/DX =    0.0                 !
 ! D23   D(12,5,6,1)           180.0            -DE/DX =    0.0                 !
 ! D24   D(12,5,6,7)             0.0            -DE/DX =    0.0                 !
 --------------------------------------------------------------------------------
 GradGradGradGradGradGradGradGradGradGradGradGradGradGradGradGradGradGrad


 ----------------------------------------------------------------------

 Electric dipole moment (input orientation):
 (Debye = 10**-18 statcoulomb cm , SI units = C m)
                  (au)            (Debye)         (10**-30 SI)
   Tot        0.274297D+00      0.697193D+00      0.232558D+01
   x         -0.241245D+00     -0.613183D+00     -0.204536D+01
   y          0.130536D+00      0.331790D+00      0.110673D+01
   z          0.000000D+00      0.000000D+00      0.000000D+00

 Dipole polarizability, Alpha (input orientation).
 (esu units = cm**3 , SI units = C**2 m**2 J**-1)
 Alpha(0;0):
               (au)            (10**-24 esu)      (10**-40 SI)
   iso        0.137605D+03      0.203909D+02      0.226880D+02
   aniso      0.820617D+02      0.121603D+02      0.135301D+02
   xx         0.162110D+03      0.240223D+02      0.267284D+02
   yx         0.418861D+01      0.620687D+00      0.690608D+00
   yy         0.167504D+03      0.248215D+02      0.276177D+02
   zx         0.000000D+00      0.000000D+00      0.000000D+00
   zy         0.000000D+00      0.000000D+00      0.000000D+00
   zz         0.832003D+02      0.123290D+02      0.137179D+02

 ----------------------------------------------------------------------

 Dipole orientation:
     6         -1.21571081         -2.24676503          5.42453068
     6         -0.13032122         -0.24084771          4.12304702
     6         -0.11271099         -0.20830210          1.38802265
     6         -1.21619210         -2.24765450          0.18748707
     6         -2.31933977         -4.28639066          1.38874913
     6         -2.30147106         -4.25336736          4.12376914
    17         -3.69082620         -6.82104588          5.67497832
    17         -1.21549349         -2.24636339          8.72737230
    17          1.25928401          2.32729300          5.67332599
     1          0.72536404          1.34055118          0.36244068
    17         -1.21641568         -2.24806770         -3.15970641
     1         -3.15756209         -5.83551614          0.36364794

 Electric dipole moment (dipole orientation):
 (Debye = 10**-18 statcoulomb cm , SI units = C m)
                  (au)            (Debye)         (10**-30 SI)
   Tot        0.274297D+00      0.697193D+00      0.232558D+01
   x          0.000000D+00      0.000000D+00      0.000000D+00
   y          0.000000D+00      0.000000D+00      0.000000D+00
   z          0.274297D+00      0.697193D+00      0.232558D+01

 Dipole polarizability, Alpha (dipole orientation).
 (esu units = cm**3 , SI units = C**2 m**2 J**-1)
 Alpha(0;0):
               (au)            (10**-24 esu)      (10**-40 SI)
   iso        0.137605D+03      0.203909D+02      0.226880D+02
   aniso      0.820617D+02      0.121603D+02      0.135301D+02
   xx         0.102810D+03      0.152349D+02      0.169511D+02
   yx         0.362415D+02      0.537044D+01      0.597542D+01
   yy         0.150179D+03      0.222542D+02      0.247611D+02
   zx        -0.161352D-01     -0.239099D-02     -0.266033D-02
   zy        -0.298195D-01     -0.441880D-02     -0.491658D-02
   zz         0.159826D+03      0.236837D+02      0.263517D+02

 ----------------------------------------------------------------------
 1\1\GINC-SH03-08N42\Freq\UM062X\6-311++G(d,p)\C6H2Cl4(1-,2)\JLAPIER\09
 -Dec-2025\0\\#N Geom=AllCheck Guess=TCheck SCRF=Check GenChk UM062X/6-
 311++G(d,p) Freq\\4-Chloro-Benzene Anion Radical (1235)\\-1,2\C,-3.167
 9728313,0.1771338594,0.\C,-1.9878821531,0.9108642873,0.\C,-0.705647689
 2,0.2393198739,0.\C,-0.7308400403,-1.1421922827,0.\C,-1.8736834636,-1.
 9185287076,0.\C,-3.1371412521,-1.2122878193,0.\Cl,-4.5943090419,-2.180
 4005785,0.\Cl,-4.7050428132,1.0091077909,0.\Cl,-1.9740545116,2.6602757
 623,0.\H,0.2151615655,0.8006633163,0.\Cl,0.8268685603,-1.985341554,0.\
 H,-1.8401563295,-2.996443948,0.\\Version=ES64L-G16RevB.01\State=2-A"\H
 F=-2070.5926403\S2=0.76018\S2-1=0.\S2A=0.750065\RMSD=4.921e-09\RMSF=7.
 177e-05\ZeroPoint=0.0548832\Thermal=0.0650184\Dipole=-0.2412448,0.1305
 361,0.\DipoleDeriv=0.88951,0.0704426,0.,0.0712374,0.9825318,0.,0.,0.,-
 0.0328726,-0.2753697,-0.2833418,0.,-0.0924853,0.3244294,0.,0.,0.,-0.03
 1618,-0.3806174,-0.1285773,0.,-0.1881443,-0.7498735,0.,0.,0.,-0.401573
 5,1.2001373,-0.0822148,0.,-0.0833691,1.0942192,0.,0.,0.,-0.0160056,-0.
 4914677,-0.2637285,0.,-0.202793,-0.6353794,0.,0.,0.,-0.4004748,0.31504
 17,0.2954796,0.,0.1036573,-0.2697831,0.,0.,0.,-0.0325349,-0.5838716,-0
 .2524896,0.,-0.3080999,-0.3578035,0.,0.,0.,-0.1290461,-0.6679132,0.326
 731,0.,0.3268473,-0.2410482,0.,0.,0.,-0.1060269,-0.1686896,-0.03688,0.
 ,0.0186521,-0.7731422,0.,0.,0.,-0.1291436,-0.0386942,-0.04512,0.,-0.03
 07769,0.0398081,0.,0.,0.,0.2044137,-0.8492765,0.3718278,0.,0.3717526,-
 0.3639599,0.,0.,0.,-0.1292998,0.0512109,0.027871,0.,0.0135218,-0.04999
 86,0.,0.,0.,0.204182\Polar=162.1103515,4.1886053,167.5039123,0.,0.,83.
 2003359\Quadrupole=-4.442843,-2.3842325,6.8270754,1.5694736,0.,0.\PG=C
 S [SG(C6H2Cl4)]\NImag=1\\0.47954590,-0.07781167,0.37678161,0.,0.,0.086
 98536,-0.21463880,0.02794521,0.,0.55149010,-0.08170478,-0.03929559,0.,
 -0.00512468,0.44073197,0.,0.,-0.03603830,0.,0.,0.01893673,-0.05233418,
 -0.03958319,0.,-0.22415753,0.10042320,0.,0.65258267,-0.07655561,-0.126
 63407,0.,0.13238191,-0.04850411,0.,0.05095374,0.58406735,0.,0.,0.00686
 056,0.,0.,-0.01893614,0.,0.,0.05686106,0.05547278,0.10871687,0.,-0.053
 38195,-0.02917086,0.,-0.07309946,0.09772358,0.,0.46177562,0.10867535,0
 .19801952,0.,-0.07034519,-0.12244283,0.,0.00848130,-0.20193706,0.,-0.0
 3266332,0.41817386,0.,0.,-0.00528507,0.,0.,0.01102996,0.,0.,-0.0553937
 9,0.,0.,0.11821434,-0.05059489,-0.07519749,0.,0.01259482,0.05785534,0.
 ,0.01021124,-0.13672361,0.,-0.21288974,0.00610756,0.,0.55892436,-0.038
 84138,-0.12807775,0.,0.06799990,0.04812064,0.,-0.06633769,-0.12310568,
 0.,-0.08247304,-0.06273599,0.,-0.01041875,0.67855287,0.,0.,0.00680909,
 0.,0.,-0.01739440,0.,0.,0.02724043,0.,0.,-0.05547084,0.,0.,0.05702210,
 -0.06752441,0.01396930,0.,0.02176853,-0.04768569,0.,-0.02029011,0.0360
 5438,0.,-0.05588237,-0.03036094,0.,-0.20801761,0.11091040,0.,0.4787157
 3,0.12434524,-0.18558893,0.,-0.14854498,-0.10705238,0.,0.04628692,0.08
 167715,0.,-0.07232117,-0.12037704,0.,0.14298867,-0.06452879,0.,-0.0523
 4730,0.51235412,0.,0.,-0.03590119,0.,0.,0.03818547,0.,0.,-0.01743977,0
 .,0.,0.01109944,0.,0.,-0.01891714,0.,0.,0.01866826,-0.00854416,0.00857
 069,0.,-0.00791706,-0.00556476,0.,0.00356562,0.00603143,0.,-0.00712434
 ,-0.00683566,0.,-0.02653139,-0.01987084,0.,-0.12629044,-0.07129298,0.,
 0.17120330,-0.02640503,-0.00722846,0.,-0.00222578,-0.00685875,0.,0.001
 52248,0.00587950,0.,-0.00381482,-0.00843920,0.,0.00534646,0.00629837,0
 .,-0.05814535,-0.08327964,0.,0.08751079,0.10216528,0.,0.,-0.00347351,0
 .,0.,-0.00794078,0.,0.,0.00172164,0.,0.,-0.00031387,0.,0.,-0.00348105,
 0.,0.,0.01011495,0.,0.,-0.00414728,-0.13479389,0.05334703,0.,-0.037663
 49,0.02403815,0.,-0.00037298,-0.00560691,0.,-0.00039657,-0.00244800,0.
 ,0.00490527,0.00248980,0.,-0.02177691,0.00795710,0.,0.00327269,-0.0028
 6498,0.,0.19539710,0.05331906,-0.06516304,0.,-0.00237788,-0.00085922,0
 .,-0.00096903,0.00282756,0.,-0.00241065,-0.00353116,0.,-0.00219995,-0.
 00244008,0.,0.03441733,-0.01672658,0.,0.00308593,-0.00807033,0.,-0.077
 34762,0.09436254,0.,0.,-0.01742894,0.,0.,0.00143373,0.,0.,0.00368046,0
 .,0.,-0.00010429,0.,0.,0.00368002,0.,0.,0.00140452,0.,0.,-0.00124513,0
 .,0.,0.00957760,0.00055558,-0.02044863,0.,-0.03689995,0.00023156,0.,0.
 00313558,0.02474025,0.,-0.00318312,-0.00125690,0.,0.00173710,0.0003392
 3,0.,-0.00360675,0.00056402,0.,-0.00015357,-0.00121801,0.,-0.00477996,
 -0.00812618,0.,0.04268673,0.01446992,-0.01632976,0.,-0.01285065,-0.172
 65135,0.,-0.00053278,-0.02334933,0.,-0.00422316,-0.01239056,0.,0.00477
 493,0.00772441,0.,-0.00270889,-0.01119865,0.,-0.00163310,-0.00201393,0
 .,-0.00217426,-0.00001517,0.,0.00358010,0.23066635,0.,0.,-0.00342105,0
 .,0.,0.01001605,0.,0.,-0.00346859,0.,0.,-0.00029070,0.,0.,0.00171085,0
 .,0.,-0.00793414,0.,0.,0.00810592,0.,0.,-0.00126902,0.,0.,-0.00410324,
 0.00098899,0.00799642,0.,-0.01852350,-0.01725124,0.,-0.27422802,-0.134
 29008,0.,-0.00109436,-0.00098431,0.,0.00379175,0.00373506,0.,-0.000377
 26,-0.00283917,0.,-0.00025930,-0.00028386,0.,-0.00143717,-0.00003208,0
 .,0.00087369,-0.00062427,0.,0.28840818,0.00065877,-0.00308712,0.,0.015
 33461,0.00866239,0.,-0.13637423,-0.13375479,0.,-0.02645731,-0.01052558
 ,0.,0.00176076,-0.00456229,0.,0.00128866,0.00046874,0.,-0.00015924,0.0
 0011009,0.,0.00135401,0.00014562,0.,0.00051790,0.00137994,0.,0.1438137
 2,0.14110596,0.,0.,0.00035261,0.,0.,-0.00727204,0.,0.,-0.00727210,0.,0
 .,-0.00038068,0.,0.,0.00176455,0.,0.,0.00356139,0.,0.,-0.00372789,0.,0
 .,0.00040689,0.,0.,0.00429664,0.,0.,0.00625081,-0.00231931,-0.00372671
 ,0.,0.00643013,0.00181969,0.,-0.02044809,0.00899298,0.,-0.11503961,0.0
 4421941,0.,-0.04230378,0.02358808,0.,0.00187715,-0.00314532,0.,-0.0024
 9781,-0.00020131,0.,-0.00142206,0.00095836,0.,-0.00056812,0.00178115,0
 .,0.00154067,-0.00046661,0.,0.17402615,-0.00369252,-0.00714228,0.,-0.0
 0021340,0.00099071,0.,0.03787100,-0.02099576,0.,0.04419333,-0.05731258
 ,0.,-0.00523676,0.00084653,0.,-0.00117127,0.00554368,0.,0.00051875,0.0
 0046174,0.,0.00095908,-0.00017147,0.,0.00105942,-0.00146960,0.,0.00076
 017,0.00057077,0.,-0.07404960,0.07729225,0.,0.,0.00016469,0.,0.,0.0044
 3463,0.,0.,0.00437517,0.,0.,-0.02275495,0.,0.,0.00438457,0.,0.,0.00442
 629,0.,0.,0.00008749,0.,0.,-0.00052863,0.,0.,0.00007542,0.,0.,-0.00331
 415,0.,0.,0.01197947,-0.00581362,-0.00377783,0.,0.00089869,0.00213408,
 0.,-0.00456472,-0.00370205,0.,0.00484313,-0.02258928,0.,-0.05182714,0.
 00887924,0.,0.00140444,0.02834896,0.,0.00127646,0.00077941,0.,-0.00093
 205,0.00168270,0.,0.00020277,0.00014103,0.,0.00031632,-0.00127105,0.,0
 .00072468,-0.00099820,0.,0.05347103,0.00354266,0.00374587,0.,-0.001979
 05,-0.00084147,0.,-0.00174172,0.00382924,0.,0.00290055,-0.01650138,0.,
 0.01094283,-0.35609223,0.,-0.00422063,-0.01129167,0.,-0.00036100,0.000
 97536,0.,0.00029660,-0.00035868,0.,0.00001724,-0.00035234,0.,-0.000000
 35,-0.00051373,0.,0.00022988,0.00138602,0.,-0.00962702,0.37601501,0.,0
 .,0.00037575,0.,0.,0.00354508,0.,0.,0.00177106,0.,0.,-0.00034956,0.,0.
 ,-0.00734817,0.,0.,-0.00726808,0.,0.,0.00429951,0.,0.,0.00039279,0.,0.
 ,-0.00371815,0.,0.,0.00533397,0.,0.,-0.00333000,0.,0.,0.00629580\\-0.0
 0018132,0.00010449,0.,-0.00010359,-0.00018791,0.,0.00002877,0.00002166
 ,0.,0.00003673,-0.00002573,0.,0.00000185,-0.00002982,0.,0.00009982,0.0
 0018283,0.,-0.00007634,-0.00005997,0.,0.00014749,-0.00008075,0.,0.0000
 0913,0.00009621,0.,0.00002151,-0.00000096,0.,0.00000337,-0.00000152,0.
 ,0.00001259,-0.00001853,0.\\\@


 ERWIN WITH HIS PSI CAN DO
 CALCULATIONS QUITE A FEW.
 BUT ONE THING HAS NOT BEEN SEEN
 JUST WHAT DOES PSI REALLY MEAN.
 -- WALTER HUCKEL, TRANS. BY FELIX BLOCH
 Job cpu time:       0 days  0 hours 35 minutes 29.7 seconds.
 Elapsed time:       0 days  0 hours 10 minutes  5.3 seconds.
 File lengths (MBytes):  RWF=    226 Int=      0 D2E=      0 Chk=     34 Scr=      1
 Normal termination of Gaussian 16 at Tue Dec  9 13:41:50 2025.
