 Entering Gaussian System, Link 0=g16
 Initial command:
 /share/software/user/restricted/gaussian/g16.B01/l1.exe "/home/users/jlapier/Chloroaromatics/Gau-30727.inp" -scrdir="/home/users/jlapier/Chloroaromatics/"
 Entering Link 1 = /share/software/user/restricted/gaussian/g16.B01/l1.exe PID=     30728.
  
 Copyright (c) 1988-2017, Gaussian, Inc.  All Rights Reserved.
  
 This is part of the Gaussian(R) 16 program.  It is based on
 the Gaussian(R) 09 system (copyright 2009, Gaussian, Inc.),
 the Gaussian(R) 03 system (copyright 2003, Gaussian, Inc.),
 the Gaussian(R) 98 system (copyright 1998, Gaussian, Inc.),
 the Gaussian(R) 94 system (copyright 1995, Gaussian, Inc.),
 the Gaussian 92(TM) system (copyright 1992, Gaussian, Inc.),
 the Gaussian 90(TM) system (copyright 1990, Gaussian, Inc.),
 the Gaussian 88(TM) system (copyright 1988, Gaussian, Inc.),
 the Gaussian 86(TM) system (copyright 1986, Carnegie Mellon
 University), and the Gaussian 82(TM) system (copyright 1983,
 Carnegie Mellon University). Gaussian is a federally registered
 trademark of Gaussian, Inc.
  
 This software contains proprietary and confidential information,
 including trade secrets, belonging to Gaussian, Inc.
  
 This software is provided under written license and may be
 used, copied, transmitted, or stored only in accord with that
 written license.
  
 The following legend is applicable only to US Government
 contracts under FAR:
  
                    RESTRICTED RIGHTS LEGEND
  
 Use, reproduction and disclosure by the US Government is
 subject to restrictions as set forth in subparagraphs (a)
 and (c) of the Commercial Computer Software - Restricted
 Rights clause in FAR 52.227-19.
  
 Gaussian, Inc.
 340 Quinnipiac St., Bldg. 40, Wallingford CT 06492
  
  
 ---------------------------------------------------------------
 Warning -- This program may not be used in any manner that
 competes with the business of Gaussian, Inc. or will provide
 assistance to any competitor of Gaussian, Inc.  The licensee
 of this program is prohibited from giving any competitor of
 Gaussian, Inc. access to this program.  By using this program,
 the user acknowledges that Gaussian, Inc. is engaged in the
 business of creating and licensing software in the field of
 computational chemistry and represents and warrants to the
 licensee that it is not a competitor of Gaussian, Inc. and that
 it will not use this program in any manner prohibited above.
 ---------------------------------------------------------------
  

 Cite this work as:
 Gaussian 16, Revision B.01,
 M. J. Frisch, G. W. Trucks, H. B. Schlegel, G. E. Scuseria, 
 M. A. Robb, J. R. Cheeseman, G. Scalmani, V. Barone, 
 G. A. Petersson, H. Nakatsuji, X. Li, M. Caricato, A. V. Marenich, 
 J. Bloino, B. G. Janesko, R. Gomperts, B. Mennucci, H. P. Hratchian, 
 J. V. Ortiz, A. F. Izmaylov, J. L. Sonnenberg, D. Williams-Young, 
 F. Ding, F. Lipparini, F. Egidi, J. Goings, B. Peng, A. Petrone, 
 T. Henderson, D. Ranasinghe, V. G. Zakrzewski, J. Gao, N. Rega, 
 G. Zheng, W. Liang, M. Hada, M. Ehara, K. Toyota, R. Fukuda, 
 J. Hasegawa, M. Ishida, T. Nakajima, Y. Honda, O. Kitao, H. Nakai, 
 T. Vreven, K. Throssell, J. A. Montgomery, Jr., J. E. Peralta, 
 F. Ogliaro, M. J. Bearpark, J. J. Heyd, E. N. Brothers, K. N. Kudin, 
 V. N. Staroverov, T. A. Keith, R. Kobayashi, J. Normand, 
 K. Raghavachari, A. P. Rendell, J. C. Burant, S. S. Iyengar, 
 J. Tomasi, M. Cossi, J. M. Millam, M. Klene, C. Adamo, R. Cammi, 
 J. W. Ochterski, R. L. Martin, K. Morokuma, O. Farkas, 
 J. B. Foresman, and D. J. Fox, Gaussian, Inc., Wallingford CT, 2016.
 
 ******************************************
 Gaussian 16:  ES64L-G16RevB.01 20-Dec-2017
                10-Dec-2025 
 ******************************************
 %mem=8GB
 %nprocshare=4
 Will use up to    4 processors via shared memory.
 %oldchk=geometry_chks/1235-12_5-ClBzNeutralRadical.chk
 %chk=frequency_chks/1235-12_5-ClBzNeutralRadical_Freq.chk
 Copying data from "geometry_chks/1235-12_5-ClBzNeutralRadical.chk" to current chk file "frequency_chks/1235-12_5-ClBzNeutralRadical_Freq.chk"
 IOpt=  2 FromEx=T IUOpen= 4 IOptOp= 5 NList=   0 IFRang= 0 IUIn= 4 IUOut= 2.
 -------------------------------------------------------
 # opt freq 6-311++g(d,p) guess=read geom=allcheck m062x
 -------------------------------------------------------
 1/18=20,19=15,26=3,29=7,38=1/1,3;
 2/9=110,12=2,40=1/2;
 3/5=4,6=6,7=1111,11=2,14=-4,25=1,30=1,71=1,74=-55,116=-2/1,2,3;
 4/5=1/1;
 5/5=2,38=6/2;
 6/7=2,8=2,9=2,10=2,28=1/1;
 7//1,2,3,16;
 1/18=20,19=15,26=3/3(2);
 2/9=110/2;
 99//99;
 2/9=110/2;
 3/5=4,6=6,7=1111,11=2,14=-2,25=1,30=1,71=1,74=-55/1,2,3;
 4/5=5,16=3,69=1/1;
 5/5=2,38=5/2;
 7//1,2,3,16;
 1/18=20,19=15,26=3/3(-5);
 2/9=110/2;
 6/7=2,8=2,9=2,10=2,19=2,28=1/1;
 99/9=1/99;
 Structure from the checkpoint file:  "frequency_chks/1235-12_5-ClBzNeutralRadical_Freq.chk"
 --------------------------------
 Neutral Radical (removed 3) 12_5
 --------------------------------
 Charge =  0 Multiplicity = 2
 Redundant internal coordinates found in file.  (old form).
 C,0,-3.1887630562,0.1791900746,0.
 C,0,-1.9576114652,0.7947447695,0.
 C,0,-0.7055876515,0.2449843635,0.
 C,0,-0.6883976035,-1.1697784146,0.
 C,0,-1.8926297236,-1.8963994449,0.
 C,0,-3.1371521198,-1.2403940624,0.
 Cl,0,-4.5557147895,-2.1555080829,0.
 Cl,0,-4.6251377668,1.0469450595,0.
 H,0,0.2111487405,0.8480574559,0.
 Cl,0,0.7887226519,-1.9917754807,0.
 H,0,-1.8635972164,-2.9982962377,0.
 Recover connectivity data from disk.

 GradGradGradGradGradGradGradGradGradGradGradGradGradGradGradGradGradGrad
 Berny optimization.
 Initialization pass.
                           ----------------------------
                           !    Initial Parameters    !
                           ! (Angstroms and Degrees)  !
 --------------------------                            --------------------------
 ! Name  Definition              Value          Derivative Info.                !
 --------------------------------------------------------------------------------
 ! R1    R(1,2)                  1.3765         estimate D2E/DX2                !
 ! R2    R(1,6)                  1.4205         estimate D2E/DX2                !
 ! R3    R(1,8)                  1.6781         estimate D2E/DX2                !
 ! R4    R(2,3)                  1.3674         estimate D2E/DX2                !
 ! R5    R(3,4)                  1.4149         estimate D2E/DX2                !
 ! R6    R(3,9)                  1.0973         estimate D2E/DX2                !
 ! R7    R(4,5)                  1.4065         estimate D2E/DX2                !
 ! R8    R(4,10)                 1.6904         estimate D2E/DX2                !
 ! R9    R(5,6)                  1.4068         estimate D2E/DX2                !
 ! R10   R(5,11)                 1.1023         estimate D2E/DX2                !
 ! R11   R(6,7)                  1.6881         estimate D2E/DX2                !
 ! A1    A(2,1,6)              114.4821         estimate D2E/DX2                !
 ! A2    A(2,1,8)              122.2984         estimate D2E/DX2                !
 ! A3    A(6,1,8)              123.2195         estimate D2E/DX2                !
 ! A4    A(1,2,3)              129.7296         estimate D2E/DX2                !
 ! A5    A(2,3,4)              114.4023         estimate D2E/DX2                !
 ! A6    A(2,3,9)              122.955          estimate D2E/DX2                !
 ! A7    A(4,3,9)              122.6427         estimate D2E/DX2                !
 ! A8    A(3,4,5)              120.4102         estimate D2E/DX2                !
 ! A9    A(3,4,10)             119.7915         estimate D2E/DX2                !
 ! A10   A(5,4,10)             119.7983         estimate D2E/DX2                !
 ! A11   A(4,5,6)              121.0993         estimate D2E/DX2                !
 ! A12   A(4,5,11)             119.5971         estimate D2E/DX2                !
 ! A13   A(6,5,11)             119.3036         estimate D2E/DX2                !
 ! A14   A(1,6,5)              119.8765         estimate D2E/DX2                !
 ! A15   A(1,6,7)              120.7439         estimate D2E/DX2                !
 ! A16   A(5,6,7)              119.3796         estimate D2E/DX2                !
 ! D1    D(6,1,2,3)              0.0            estimate D2E/DX2                !
 ! D2    D(8,1,2,3)            180.0            estimate D2E/DX2                !
 ! D3    D(2,1,6,5)              0.0            estimate D2E/DX2                !
 ! D4    D(2,1,6,7)            180.0            estimate D2E/DX2                !
 ! D5    D(8,1,6,5)            180.0            estimate D2E/DX2                !
 ! D6    D(8,1,6,7)              0.0            estimate D2E/DX2                !
 ! D7    D(1,2,3,4)              0.0            estimate D2E/DX2                !
 ! D8    D(1,2,3,9)            180.0            estimate D2E/DX2                !
 ! D9    D(2,3,4,5)              0.0            estimate D2E/DX2                !
 ! D10   D(2,3,4,10)           180.0            estimate D2E/DX2                !
 ! D11   D(9,3,4,5)            180.0            estimate D2E/DX2                !
 ! D12   D(9,3,4,10)             0.0            estimate D2E/DX2                !
 ! D13   D(3,4,5,6)              0.0            estimate D2E/DX2                !
 ! D14   D(3,4,5,11)           180.0            estimate D2E/DX2                !
 ! D15   D(10,4,5,6)           180.0            estimate D2E/DX2                !
 ! D16   D(10,4,5,11)            0.0            estimate D2E/DX2                !
 ! D17   D(4,5,6,1)              0.0            estimate D2E/DX2                !
 ! D18   D(4,5,6,7)            180.0            estimate D2E/DX2                !
 ! D19   D(11,5,6,1)           180.0            estimate D2E/DX2                !
 ! D20   D(11,5,6,7)             0.0            estimate D2E/DX2                !
 --------------------------------------------------------------------------------
 Trust Radius=3.00D-01 FncErr=1.00D-07 GrdErr=1.00D-06 EigMax=2.50D+02 EigMin=1.00D-04
 Number of steps in this run=     57 maximum allowed number of steps=    100.
 GradGradGradGradGradGradGradGradGradGradGradGradGradGradGradGradGradGrad

                          Input orientation:                          
 ---------------------------------------------------------------------
 Center     Atomic      Atomic             Coordinates (Angstroms)
 Number     Number       Type             X           Y           Z
 ---------------------------------------------------------------------
      1          6           0       -3.188763    0.179190    0.000000
      2          6           0       -1.957611    0.794745    0.000000
      3          6           0       -0.705588    0.244984   -0.000000
      4          6           0       -0.688398   -1.169778   -0.000000
      5          6           0       -1.892630   -1.896399   -0.000000
      6          6           0       -3.137152   -1.240394    0.000000
      7         17           0       -4.555715   -2.155508    0.000000
      8         17           0       -4.625138    1.046945    0.000000
      9          1           0        0.211149    0.848057   -0.000000
     10         17           0        0.788723   -1.991775   -0.000000
     11          1           0       -1.863597   -2.998296   -0.000000
 ---------------------------------------------------------------------
                    Distance matrix (angstroms):
                    1          2          3          4          5
     1  C    0.000000
     2  C    1.376460   0.000000
     3  C    2.484047   1.367406   0.000000
     4  C    2.841046   2.338858   1.414867   0.000000
     5  C    2.447046   2.691929   2.448386   1.406468   0.000000
     6  C    1.420522   2.352256   2.849360   2.449772   1.406833
     7  Cl   2.705434   3.931174   4.537162   3.990965   2.675661
     8  Cl   1.678145   2.679422   4.000752   4.517940   4.016202
     9  H    3.465081   2.169415   1.097316   2.209264   3.458024
    10  Cl   4.531389   3.912422   2.689992   1.690433   2.683048
    11  H    3.442744   3.794206   3.443814   2.173608   1.102279
                    6          7          8          9         10
     6  C    0.000000
     7  Cl   1.688121   0.000000
     8  Cl   2.728740   3.203206   0.000000
     9  H    3.946232   5.634216   4.840374   0.000000
    10  Cl   3.997132   5.346945   6.208358   2.897972   0.000000
    11  H    2.170752   2.820955   4.897967   4.370241   2.836879
                   11
    11  H    0.000000
 Stoichiometry    C6H2Cl3(2)
 Framework group  CS[SG(C6H2Cl3)]
 Deg. of freedom    19
 Full point group                 CS      NOp   2
 Largest Abelian subgroup         CS      NOp   2
 Largest concise Abelian subgroup C1      NOp   1
                         Standard orientation:                         
 ---------------------------------------------------------------------
 Center     Atomic      Atomic             Coordinates (Angstroms)
 Number     Number       Type             X           Y           Z
 ---------------------------------------------------------------------
      1          6           0        1.261157   -0.191276    0.000000
      2          6           0        1.191079    1.183399    0.000000
      3          6           0        0.096315    2.002724   -0.000000
      4          6           0       -1.143704    1.321400   -0.000000
      5          6           0       -1.183559   -0.084504   -0.000000
      6          6           0        0.000000   -0.845009    0.000000
      7         17           0       -0.098454   -2.530256    0.000000
      8         17           0        2.723466   -1.014575    0.000000
      9          1           0        0.170114    3.097555   -0.000000
     10         17           0       -2.586235    2.202688   -0.000000
     11          1           0       -2.157055   -0.601539   -0.000000
 ---------------------------------------------------------------------
 Rotational constants (GHZ):           1.9110637           0.6037593           0.4588087
 Standard basis: 6-311++G(d,p) (5D, 7F)
 There are   183 symmetry adapted cartesian basis functions of A'  symmetry.
 There are    62 symmetry adapted cartesian basis functions of A"  symmetry.
 There are   174 symmetry adapted basis functions of A'  symmetry.
 There are    62 symmetry adapted basis functions of A"  symmetry.
   236 basis functions,   393 primitive gaussians,   245 cartesian basis functions
    45 alpha electrons       44 beta electrons
       nuclear repulsion energy       615.7721360365 Hartrees.
 NAtoms=   11 NActive=   11 NUniq=   11 SFac= 1.00D+00 NAtFMM=   60 NAOKFM=F Big=F
 Integral buffers will be    131072 words long.
 Raffenetti 2 integral format.
 Two-electron integral symmetry is turned on.
 One-electron integrals computed using PRISM.
 NBasis=   236 RedAO= T EigKep=  1.07D-06  NBF=   174    62
 NBsUse=   236 1.00D-06 EigRej= -1.00D+00 NBFU=   174    62
 Initial guess from the checkpoint file:  "frequency_chks/1235-12_5-ClBzNeutralRadical_Freq.chk"
 B after Tr=     0.000000    0.000000    0.000000
         Rot=    1.000000    0.000000   -0.000000    0.000000 Ang=   0.00 deg.
 Initial guess orbital symmetries:
 Alpha Orbitals:
       Occupied  (A') (A') (A') (A') (A') (A') (A') (A') (A') (A')
                 (A') (A') (A") (A') (A") (A') (A") (A') (A') (A')
                 (A") (A') (A") (A") (A") (A") (A') (A') (A') (A")
                 (A') (A') (A') (A') (A') (A') (A') (A') (A') (A')
                 (A') (A') (A') (A') (A')
       Virtual   (A') (A') (A') (A') (A') (A') (A') (A') (A') (A')
                 (A') (A') (A') (A') (A') (A') (A') (A') (A') (A')
                 (A') (A') (A') (A') (A') (A') (A') (A') (A') (A')
                 (A') (A') (A') (A') (A') (A') (A') (A') (A') (A')
                 (A') (A') (A') (A') (A') (A') (A') (A') (A') (A')
                 (A') (A') (A') (A') (A') (A') (A') (A') (A') (A')
                 (A') (A') (A') (A') (A') (A') (A') (A') (A') (A')
                 (A') (A') (A') (A') (A') (A') (A') (A') (A') (A')
                 (A') (A') (A') (A') (A') (A') (A') (A') (A') (A')
                 (A') (A') (A') (A') (A') (A') (A') (A') (A') (A')
                 (A') (A') (A') (A') (A') (A') (A') (A') (A') (A')
                 (A') (A') (A') (A') (A') (A') (A') (A') (A') (A')
                 (A') (A') (A') (A') (A') (A') (A') (A') (A') (A')
                 (A') (A') (A') (A') (A') (A') (A') (A') (A") (A")
                 (A") (A") (A") (A") (A") (A") (A") (A") (A") (A")
                 (A") (A") (A") (A") (A") (A") (A") (A") (A") (A")
                 (A") (A") (A") (A") (A") (A") (A") (A") (A") (A")
                 (A") (A") (A") (A") (A") (A") (A") (A") (A") (A")
                 (A") (A") (A") (A") (A") (A") (A") (A") (A") (A")
                 (A")
 Beta  Orbitals:
       Occupied  (A') (A') (A') (A') (A') (A') (A') (A') (A') (A')
                 (A') (A') (A") (A') (A") (A') (A") (A') (A') (A')
                 (A") (A") (A") (A') (A") (A") (A') (A') (A') (A")
                 (A') (A') (A') (A') (A') (A') (A') (A') (A') (A')
                 (A') (A') (A') (A')
       Virtual   (A') (A') (A') (A') (A') (A') (A') (A') (A') (A')
                 (A') (A') (A') (A') (A') (A') (A') (A') (A') (A')
                 (A') (A') (A') (A') (A') (A') (A') (A') (A') (A')
                 (A') (A') (A') (A') (A') (A') (A') (A') (A') (A')
                 (A') (A') (A') (A') (A') (A') (A') (A') (A') (A')
                 (A') (A') (A') (A') (A') (A') (A') (A') (A') (A')
                 (A') (A') (A') (A') (A') (A') (A') (A') (A') (A')
                 (A') (A') (A') (A') (A') (A') (A') (A') (A') (A')
                 (A') (A') (A') (A') (A') (A') (A') (A') (A') (A')
                 (A') (A') (A') (A') (A') (A') (A') (A') (A') (A')
                 (A') (A') (A') (A') (A') (A') (A') (A') (A') (A')
                 (A') (A') (A') (A') (A') (A') (A') (A') (A') (A')
                 (A') (A') (A') (A') (A') (A') (A') (A') (A') (A')
                 (A') (A') (A') (A') (A') (A') (A') (A') (A') (A")
                 (A") (A") (A") (A") (A") (A") (A") (A") (A") (A")
                 (A") (A") (A") (A") (A") (A") (A") (A") (A") (A")
                 (A") (A") (A") (A") (A") (A") (A") (A") (A") (A")
                 (A") (A") (A") (A") (A") (A") (A") (A") (A") (A")
                 (A") (A") (A") (A") (A") (A") (A") (A") (A") (A")
                 (A") (A")
 Initial guess <Sx>= 0.0000 <Sy>= 0.0000 <Sz>= 0.5000 <S**2>= 0.7500 S= 0.5000
 Keep R1 and R2 ints in memory in symmetry-blocked form, NReq=617299900.
 Requested convergence on RMS density matrix=1.00D-08 within 128 cycles.
 Requested convergence on MAX density matrix=1.00D-06.
 Requested convergence on             energy=1.00D-06.
 No special actions if energy rises.
 EnCoef did     3 forward-backward iterations
 EnCoef did     4 forward-backward iterations
 SCF Done:  E(UM062X) =  -1610.30197002     A.U. after   30 cycles
            NFock= 30  Conv=0.60D-08     -V/T= 2.0023
 <Sx>= 0.0000 <Sy>= 0.0000 <Sz>= 0.5000 <S**2>= 0.7630 S= 0.5065
 <L.S>=  0.00000000000    
 Annihilation of the first spin contaminant:
 S**2 before annihilation     0.7630,   after     0.7501

 **********************************************************************

            Population analysis using the SCF Density.

 **********************************************************************

 Orbital symmetries:
 Alpha Orbitals:
       Occupied  (A') (A') (A') (A') (A') (A') (A') (A') (A') (A')
                 (A') (A') (A') (A') (A') (A") (A') (A") (A') (A")
                 (A') (A') (A') (A') (A') (A') (A') (A') (A') (A')
                 (A') (A') (A') (A") (A') (A') (A") (A") (A') (A')
                 (A") (A') (A') (A") (A")
       Virtual   (A") (A") (A') (A') (A') (A') (A') (A") (A') (A')
                 (A") (A') (A") (A') (A') (A') (A") (A') (A") (A')
                 (A') (A') (A") (A') (A") (A') (A') (A") (A') (A")
                 (A') (A') (A') (A") (A') (A') (A') (A') (A') (A')
                 (A') (A') (A') (A') (A') (A') (A') (A') (A') (A')
                 (A') (A') (A") (A') (A") (A') (A") (A') (A') (A')
                 (A') (A") (A') (A") (A') (A") (A") (A') (A") (A')
                 (A') (A') (A") (A') (A') (A') (A') (A") (A') (A')
                 (A") (A') (A') (A') (A") (A') (A") (A") (A') (A')
                 (A") (A') (A') (A') (A') (A') (A") (A') (A') (A")
                 (A') (A") (A') (A') (A') (A') (A') (A") (A") (A')
                 (A") (A') (A') (A') (A') (A") (A') (A") (A') (A')
                 (A") (A') (A') (A") (A') (A') (A") (A") (A') (A')
                 (A") (A') (A') (A') (A") (A") (A") (A') (A") (A')
                 (A') (A') (A') (A') (A') (A') (A') (A') (A") (A')
                 (A') (A') (A") (A") (A") (A") (A') (A") (A') (A')
                 (A') (A') (A') (A') (A') (A') (A') (A') (A') (A')
                 (A') (A') (A') (A') (A') (A') (A') (A') (A') (A")
                 (A") (A") (A') (A') (A') (A') (A') (A') (A') (A')
                 (A')
 Beta  Orbitals:
       Occupied  (A') (A') (A') (A') (A') (A') (A') (A') (A') (A')
                 (A') (A') (A') (A') (A') (A") (A") (A') (A') (A")
                 (A') (A') (A') (A') (A') (A') (A') (A') (A') (A')
                 (A') (A') (A') (A") (A') (A') (A") (A") (A') (A')
                 (A") (A') (A") (A")
       Virtual   (A') (A") (A") (A') (A') (A') (A') (A') (A") (A')
                 (A') (A") (A") (A') (A') (A') (A') (A") (A') (A")
                 (A') (A') (A') (A") (A') (A") (A') (A') (A') (A")
                 (A') (A") (A') (A') (A") (A') (A') (A') (A') (A')
                 (A') (A') (A') (A') (A') (A') (A') (A') (A') (A')
                 (A') (A') (A') (A") (A') (A") (A') (A") (A') (A')
                 (A') (A') (A") (A') (A') (A") (A') (A") (A") (A")
                 (A') (A') (A") (A') (A') (A') (A') (A') (A") (A')
                 (A') (A") (A') (A') (A') (A") (A") (A') (A") (A')
                 (A") (A') (A') (A') (A') (A') (A') (A") (A') (A')
                 (A") (A') (A") (A') (A') (A') (A') (A') (A") (A')
                 (A") (A") (A') (A') (A') (A') (A") (A") (A') (A')
                 (A') (A") (A') (A') (A") (A') (A') (A") (A") (A')
                 (A') (A") (A') (A') (A") (A') (A") (A") (A") (A')
                 (A') (A') (A') (A') (A') (A') (A') (A') (A') (A")
                 (A') (A') (A') (A") (A") (A") (A") (A') (A") (A')
                 (A') (A') (A') (A') (A') (A') (A') (A') (A') (A')
                 (A') (A') (A') (A') (A') (A') (A') (A') (A') (A')
                 (A") (A") (A") (A') (A') (A') (A') (A') (A') (A')
                 (A') (A')
 The electronic state is 2-A'.
 Alpha  occ. eigenvalues -- -102.69987-102.69970-102.69800 -10.64516 -10.64106
 Alpha  occ. eigenvalues --  -10.63868 -10.60747 -10.58988 -10.58898  -9.84330
 Alpha  occ. eigenvalues --   -9.84305  -9.84150  -7.56867  -7.56866  -7.56680
 Alpha  occ. eigenvalues --   -7.56167  -7.56139  -7.56119  -7.56113  -7.55987
 Alpha  occ. eigenvalues --   -7.55968  -1.05672  -1.01806  -0.99156  -0.94570
 Alpha  occ. eigenvalues --   -0.86345  -0.83394  -0.71851  -0.70006  -0.61197
 Alpha  occ. eigenvalues --   -0.59882  -0.55617  -0.53723  -0.52430  -0.50149
 Alpha  occ. eigenvalues --   -0.48430  -0.46813  -0.44042  -0.42049  -0.40049
 Alpha  occ. eigenvalues --   -0.39957  -0.39343  -0.33780  -0.33470  -0.30701
 Alpha virt. eigenvalues --   -0.02197  -0.01669  -0.00139   0.01201   0.02086
 Alpha virt. eigenvalues --    0.03022   0.04180   0.05138   0.05374   0.06523
 Alpha virt. eigenvalues --    0.07213   0.07370   0.08119   0.08629   0.08901
 Alpha virt. eigenvalues --    0.09837   0.10843   0.11199   0.11495   0.11881
 Alpha virt. eigenvalues --    0.12414   0.12829   0.13146   0.13587   0.14890
 Alpha virt. eigenvalues --    0.15321   0.15585   0.15925   0.16291   0.17680
 Alpha virt. eigenvalues --    0.17830   0.18678   0.19897   0.20337   0.20966
 Alpha virt. eigenvalues --    0.22344   0.23187   0.23973   0.24166   0.25366
 Alpha virt. eigenvalues --    0.26010   0.26544   0.27058   0.28435   0.29299
 Alpha virt. eigenvalues --    0.29882   0.30828   0.32931   0.33795   0.33977
 Alpha virt. eigenvalues --    0.43685   0.44668   0.45637   0.46614   0.47338
 Alpha virt. eigenvalues --    0.47642   0.49638   0.49770   0.50947   0.52448
 Alpha virt. eigenvalues --    0.52706   0.54430   0.56347   0.58922   0.59405
 Alpha virt. eigenvalues --    0.61214   0.62047   0.63410   0.63591   0.65262
 Alpha virt. eigenvalues --    0.67200   0.68236   0.68949   0.71068   0.73217
 Alpha virt. eigenvalues --    0.76785   0.79268   0.79268   0.84481   0.86273
 Alpha virt. eigenvalues --    0.86436   0.87890   0.88110   0.89436   0.89902
 Alpha virt. eigenvalues --    0.90637   0.90718   0.91690   0.93636   0.94673
 Alpha virt. eigenvalues --    0.95112   0.96073   0.97873   0.98329   0.99099
 Alpha virt. eigenvalues --    1.01232   1.02010   1.03779   1.09976   1.11300
 Alpha virt. eigenvalues --    1.11512   1.17078   1.18709   1.21817   1.25984
 Alpha virt. eigenvalues --    1.26747   1.30837   1.31562   1.33542   1.34251
 Alpha virt. eigenvalues --    1.37083   1.45237   1.50368   1.52953   1.58170
 Alpha virt. eigenvalues --    1.61201   1.62092   1.62684   1.70854   1.78510
 Alpha virt. eigenvalues --    1.83265   1.83817   1.85815   1.87531   1.91672
 Alpha virt. eigenvalues --    1.92673   1.93858   1.97360   2.04020   2.07858
 Alpha virt. eigenvalues --    2.11366   2.16146   2.25936   2.26634   2.27041
 Alpha virt. eigenvalues --    2.29438   2.30802   2.32633   2.32849   2.42872
 Alpha virt. eigenvalues --    2.43986   2.46306   2.48274   2.53664   2.58000
 Alpha virt. eigenvalues --    2.60988   2.64806   2.65555   2.66877   2.70462
 Alpha virt. eigenvalues --    2.74168   2.76738   2.79524   2.82056   2.89977
 Alpha virt. eigenvalues --    2.92130   2.98005   3.09093   3.13426   3.14595
 Alpha virt. eigenvalues --    3.23623   3.29472   3.34494   3.46610   3.60285
 Alpha virt. eigenvalues --    3.72645   3.83866   4.01003   4.10212   4.74987
 Alpha virt. eigenvalues --    9.93802   9.98617  10.00436  23.42794  23.86748
 Alpha virt. eigenvalues --   23.88548  24.01898  24.07219  24.19791  25.88162
 Alpha virt. eigenvalues --   25.92092  25.96767  26.17009  26.19672  26.33258
 Alpha virt. eigenvalues --   26.57466  26.73435  26.91196 216.03534 216.08936
 Alpha virt. eigenvalues --  216.11114
  Beta  occ. eigenvalues -- -102.69964-102.69938-102.69783 -10.64443 -10.64001
  Beta  occ. eigenvalues --  -10.63907 -10.59767 -10.59018 -10.58929  -9.84321
  Beta  occ. eigenvalues --   -9.84291  -9.84144  -7.56823  -7.56789  -7.56645
  Beta  occ. eigenvalues --   -7.56152  -7.56125  -7.56122  -7.56084  -7.55974
  Beta  occ. eigenvalues --   -7.55958  -1.05242  -1.01637  -0.98878  -0.93723
  Beta  occ. eigenvalues --   -0.85567  -0.82827  -0.70510  -0.69061  -0.60596
  Beta  occ. eigenvalues --   -0.59193  -0.55015  -0.53412  -0.52041  -0.49303
  Beta  occ. eigenvalues --   -0.47964  -0.46767  -0.43804  -0.41253  -0.39846
  Beta  occ. eigenvalues --   -0.39333  -0.39240  -0.32719  -0.30605
  Beta virt. eigenvalues --   -0.08459  -0.02229  -0.00571  -0.00033   0.01195
  Beta virt. eigenvalues --    0.02445   0.02739   0.04201   0.05377   0.05416
  Beta virt. eigenvalues --    0.06303   0.07009   0.07949   0.08143   0.08434
  Beta virt. eigenvalues --    0.08847   0.09875   0.10877   0.11210   0.11497
  Beta virt. eigenvalues --    0.11878   0.12581   0.12929   0.13035   0.13511
  Beta virt. eigenvalues --    0.14626   0.15383   0.15655   0.16314   0.16357
  Beta virt. eigenvalues --    0.17880   0.18078   0.18487   0.19850   0.20463
  Beta virt. eigenvalues --    0.21308   0.22246   0.23267   0.23757   0.24156
  Beta virt. eigenvalues --    0.25098   0.25594   0.26803   0.27303   0.28108
  Beta virt. eigenvalues --    0.28815   0.29859   0.31562   0.32935   0.34001
  Beta virt. eigenvalues --    0.34527   0.43521   0.44928   0.45666   0.46341
  Beta virt. eigenvalues --    0.47341   0.47723   0.49705   0.49889   0.51140
  Beta virt. eigenvalues --    0.52465   0.52962   0.54647   0.56190   0.58061
  Beta virt. eigenvalues --    0.59003   0.61048   0.61197   0.62231   0.63651
  Beta virt. eigenvalues --    0.65200   0.67546   0.68769   0.69814   0.71262
  Beta virt. eigenvalues --    0.73409   0.76321   0.78865   0.79468   0.84445
  Beta virt. eigenvalues --    0.86276   0.86511   0.87870   0.88215   0.89520
  Beta virt. eigenvalues --    0.89964   0.90779   0.90835   0.91730   0.93151
  Beta virt. eigenvalues --    0.95260   0.95307   0.95756   0.97700   0.98226
  Beta virt. eigenvalues --    0.99013   1.01213   1.02502   1.03739   1.09973
  Beta virt. eigenvalues --    1.11696   1.12149   1.18421   1.18470   1.21907
  Beta virt. eigenvalues --    1.25494   1.26680   1.30837   1.32399   1.34056
  Beta virt. eigenvalues --    1.34340   1.37342   1.46749   1.51031   1.54099
  Beta virt. eigenvalues --    1.58301   1.61762   1.62740   1.62787   1.71519
  Beta virt. eigenvalues --    1.78776   1.83581   1.84605   1.86605   1.87587
  Beta virt. eigenvalues --    1.92162   1.93061   1.94462   1.97651   2.04433
  Beta virt. eigenvalues --    2.08035   2.11575   2.16345   2.25964   2.27074
  Beta virt. eigenvalues --    2.27455   2.29511   2.31176   2.32911   2.32913
  Beta virt. eigenvalues --    2.42938   2.44497   2.46560   2.48691   2.53787
  Beta virt. eigenvalues --    2.58111   2.61172   2.65364   2.65961   2.66996
  Beta virt. eigenvalues --    2.70856   2.74332   2.76684   2.80031   2.82092
  Beta virt. eigenvalues --    2.90122   2.91943   3.00582   3.09175   3.13898
  Beta virt. eigenvalues --    3.15488   3.23734   3.29658   3.34845   3.47189
  Beta virt. eigenvalues --    3.60794   3.72614   3.83950   4.01504   4.10338
  Beta virt. eigenvalues --    4.75197   9.93812   9.98625  10.00445  23.42935
  Beta virt. eigenvalues --   23.86866  23.88651  24.02028  24.07202  24.20463
  Beta virt. eigenvalues --   25.88189  25.92135  25.96795  26.17070  26.19715
  Beta virt. eigenvalues --   26.33301  26.57625  26.73528  26.91338 216.03573
  Beta virt. eigenvalues --  216.08970 216.11157
          Condensed to atoms (all electrons):
               1          2          3          4          5          6
     1  C   25.294860  -6.780798  -1.292885  -4.494128  -1.093638  -4.682550
     2  C   -6.780798  26.617259   1.245590  -0.222209 -12.413713  -1.542258
     3  C   -1.292885   1.245590  15.856565  -0.847945  -3.566136  -4.949039
     4  C   -4.494128  -0.222209  -0.847945  15.375319  -2.601293  -0.400742
     5  C   -1.093638 -12.413713  -3.566136  -2.601293  35.904879 -10.353880
     6  C   -4.682550  -1.542258  -4.949039  -0.400742 -10.353880  28.213464
     7  Cl  -0.142390   1.031098   0.130599  -0.128624  -0.641753  -0.900030
     8  Cl  -0.622277  -1.734754   0.027597   0.014149   1.103245   0.367152
     9  H   -0.100686   0.131645   0.432899  -0.024037  -0.133003   0.025504
    10  Cl   0.145570   0.134625  -0.057238  -1.130041   0.276376  -0.081949
    11  H   -0.023096   0.007750  -0.095775  -0.127659   0.576249  -0.044851
               7          8          9         10         11
     1  C   -0.142390  -0.622277  -0.100686   0.145570  -0.023096
     2  C    1.031098  -1.734754   0.131645   0.134625   0.007750
     3  C    0.130599   0.027597   0.432899  -0.057238  -0.095775
     4  C   -0.128624   0.014149  -0.024037  -1.130041  -0.127659
     5  C   -0.641753   1.103245  -0.133003   0.276376   0.576249
     6  C   -0.900030   0.367152   0.025504  -0.081949  -0.044851
     7  Cl  17.557116  -0.303624  -0.001124  -0.020531   0.006623
     8  Cl  -0.303624  17.661287  -0.003784  -0.010281  -0.004432
     9  H   -0.001124  -0.003784   0.466636  -0.000357  -0.002198
    10  Cl  -0.020531  -0.010281  -0.000357  17.387250   0.016720
    11  H    0.006623  -0.004432  -0.002198   0.016720   0.469994
          Atomic-Atomic Spin Densities.
               1          2          3          4          5          6
     1  C    0.546307  -0.797070   1.054020  -0.239767   0.225804  -0.671614
     2  C   -0.797070   2.497786  -1.441601   0.483595  -0.705441   0.676409
     3  C    1.054020  -1.441601   1.210309  -0.671011   0.234089  -0.393119
     4  C   -0.239767   0.483595  -0.671011   0.311199   0.015155   0.176488
     5  C    0.225804  -0.705441   0.234089   0.015155   0.594239  -0.388546
     6  C   -0.671614   0.676409  -0.393119   0.176488  -0.388546   0.721068
     7  Cl   0.131911  -0.030079   0.061218  -0.030811  -0.028028  -0.117502
     8  Cl  -0.063198  -0.049257  -0.071281   0.016779   0.045026   0.106380
     9  H   -0.021810   0.039544  -0.009774  -0.003266  -0.022263   0.009692
    10  Cl   0.045420  -0.098977   0.133949  -0.072804   0.018011  -0.050272
    11  H    0.008343  -0.020398   0.010916  -0.004322   0.022871  -0.019137
               7          8          9         10         11
     1  C    0.131911  -0.063198  -0.021810   0.045420   0.008343
     2  C   -0.030079  -0.049257   0.039544  -0.098977  -0.020398
     3  C    0.061218  -0.071281  -0.009774   0.133949   0.010916
     4  C   -0.030811   0.016779  -0.003266  -0.072804  -0.004322
     5  C   -0.028028   0.045026  -0.022263   0.018011   0.022871
     6  C   -0.117502   0.106380   0.009692  -0.050272  -0.019137
     7  Cl   0.051822  -0.027771  -0.000001   0.003420   0.000750
     8  Cl  -0.027771   0.052629  -0.000842  -0.000501   0.000132
     9  H   -0.000001  -0.000842   0.036901  -0.001368  -0.000725
    10  Cl   0.003420  -0.000501  -0.001368   0.037472   0.001572
    11  H    0.000750   0.000132  -0.000725   0.001572   0.002381
 Mulliken charges and spin densities:
               1          2
     1  C   -0.207982   0.218348
     2  C   -0.474236   0.554513
     3  C   -0.884233   0.117717
     4  C    0.587210  -0.018764
     5  C   -1.057333   0.010918
     6  C    0.349179   0.049846
     7  Cl   0.412639   0.014929
     8  Cl   0.505722   0.008098
     9  H    0.208506   0.026088
    10  Cl   0.339854   0.015923
    11  H    0.220673   0.002384
 Sum of Mulliken charges =  -0.00000   1.00000
 Mulliken charges and spin densities with hydrogens summed into heavy atoms:
               1          2
     1  C   -0.207982   0.218348
     2  C   -0.474236   0.554513
     3  C   -0.675727   0.143805
     4  C    0.587210  -0.018764
     5  C   -0.836660   0.013302
     6  C    0.349179   0.049846
     7  Cl   0.412639   0.014929
     8  Cl   0.505722   0.008098
    10  Cl   0.339854   0.015923
 Electronic spatial extent (au):  <R**2>=           2107.7938
 Charge=             -0.0000 electrons
 Dipole moment (field-independent basis, Debye):
    X=             -0.5056    Y=              0.7608    Z=              0.0000  Tot=              0.9135
 Quadrupole moment (field-independent basis, Debye-Ang):
   XX=            -72.4889   YY=            -69.2822   ZZ=            -74.2109
   XY=              2.0021   XZ=             -0.0000   YZ=              0.0000
 Traceless Quadrupole moment (field-independent basis, Debye-Ang):
   XX=             -0.4949   YY=              2.7118   ZZ=             -2.2169
   XY=              2.0021   XZ=             -0.0000   YZ=              0.0000
 Octapole moment (field-independent basis, Debye-Ang**2):
  XXX=             -4.8343  YYY=              0.2006  ZZZ=             -0.0000  XYY=              2.1428
  XXY=             -9.0184  XXZ=             -0.0000  XZZ=             -0.0414  YZZ=             -4.6181
  YYZ=              0.0000  XYZ=             -0.0000
 Hexadecapole moment (field-independent basis, Debye-Ang**3):
 XXXX=          -1314.3124 YYYY=          -1225.2169 ZZZZ=            -85.6753 XXXY=            284.0888
 XXXZ=             -0.0000 YYYX=            310.3507 YYYZ=              0.0000 ZZZX=             -0.0000
 ZZZY=              0.0000 XXYY=           -435.6462 XXZZ=           -246.6985 YYZZ=           -239.8712
 XXYZ=              0.0000 YYXZ=             -0.0000 ZZXY=            103.9346
 N-N= 6.157721360365D+02 E-N=-5.045876324902D+03  KE= 1.606555745655D+03
 Symmetry A'   KE= 1.462247097665D+03
 Symmetry A"   KE= 1.443086479909D+02
 Symmetry A'   SP= 1.000000000000D+00
 Symmetry A"   SP=-1.214097512507D-14
                          Isotropic Fermi Contact Couplings
        Atom                 a.u.       MegaHertz       Gauss      10(-4) cm-1
     1  C(13)             -0.01209     -13.59037      -4.84938      -4.53326
     2  C(13)              0.43431     488.24314     174.21729     162.86038
     3  C(13)              0.00542       6.09850       2.17610       2.03424
     4  C(13)              0.07335      82.45978      29.42370      27.50562
     5  C(13)             -0.00831      -9.34682      -3.33518      -3.11776
     6  C(13)              0.05214      58.61315      20.91463      19.55124
     7  Cl(35)             0.00687       3.01075       1.07431       1.00428
     8  Cl(35)             0.01929       8.45585       3.01726       2.82057
     9  H(1)               0.01273      56.91325      20.30806      18.98422
    10  Cl(35)             0.00221       0.96708       0.34508       0.32258
    11  H(1)               0.00040       1.79960       0.64214       0.60028
 --------------------------------------------------------
       Center         ----  Spin Dipole Couplings  ----
                      3XX-RR        3YY-RR        3ZZ-RR
 --------------------------------------------------------
     1   Atom       -0.019317      0.121991     -0.102674
     2   Atom        0.638150     -0.242312     -0.395839
     3   Atom        0.081662      0.016586     -0.098248
     4   Atom        0.017828     -0.016451     -0.001376
     5   Atom        0.030969      0.022646     -0.053614
     6   Atom        0.014009     -0.017071      0.003062
     7   Atom       -0.019756      0.057395     -0.037639
     8   Atom        0.021132      0.124793     -0.145925
     9   Atom        0.002592      0.009094     -0.011686
    10   Atom        0.082888     -0.059054     -0.023834
    11   Atom        0.001185      0.001320     -0.002505
 --------------------------------------------------------
                        XY            XZ            YZ
 --------------------------------------------------------
     1   Atom       -0.003703     -0.000000      0.000000
     2   Atom        0.634412      0.000000      0.000000
     3   Atom       -0.038617      0.000000     -0.000000
     4   Atom        0.032297      0.000000     -0.000000
     5   Atom        0.006131      0.000000      0.000000
     6   Atom        0.019952     -0.000000     -0.000000
     7   Atom        0.084857     -0.000000     -0.000000
     8   Atom       -0.139031      0.000000      0.000000
     9   Atom       -0.015833     -0.000000      0.000000
    10   Atom       -0.015288     -0.000000     -0.000000
    11   Atom        0.000054      0.000000      0.000000
 --------------------------------------------------------


 ---------------------------------------------------------------------------------
              Anisotropic Spin Dipole Couplings in Principal Axis System
 ---------------------------------------------------------------------------------

       Atom             a.u.   MegaHertz   Gauss  10(-4) cm-1        Axes

              Baa    -0.1027   -13.778    -4.916    -4.596  0.0000  0.0000  1.0000
     1 C(13)  Bbb    -0.0194    -2.605    -0.930    -0.869  0.9997  0.0262  0.0000
              Bcc     0.1221    16.383     5.846     5.465 -0.0262  0.9997 -0.0000
 
              Baa    -0.5743   -77.062   -27.498   -25.705 -0.4636  0.8860  0.0000
     2 C(13)  Bbb    -0.3958   -53.118   -18.954   -17.718  0.0000  0.0000  1.0000
              Bcc     0.9701   130.180    46.451    43.423  0.8860  0.4636 -0.0000
 
              Baa    -0.0982   -13.184    -4.704    -4.398  0.0000  0.0000  1.0000
     3 C(13)  Bbb    -0.0014    -0.184    -0.066    -0.061  0.4217  0.9067 -0.0000
              Bcc     0.0996    13.368     4.770     4.459  0.9067 -0.4217  0.0000
 
              Baa    -0.0359    -4.814    -1.718    -1.606 -0.5154  0.8570 -0.0000
     4 C(13)  Bbb    -0.0014    -0.185    -0.066    -0.062  0.0000  0.0000  1.0000
              Bcc     0.0373     4.999     1.784     1.667  0.8570  0.5154  0.0000
 
              Baa    -0.0536    -7.195    -2.567    -2.400  0.0000  0.0000  1.0000
     5 C(13)  Bbb     0.0194     2.603     0.929     0.868 -0.4682  0.8836  0.0000
              Bcc     0.0342     4.592     1.638     1.532  0.8836  0.4682 -0.0000
 
              Baa    -0.0268    -3.599    -1.284    -1.201 -0.4391  0.8985  0.0000
     6 C(13)  Bbb     0.0031     0.411     0.147     0.137  0.0000  0.0000  1.0000
              Bcc     0.0238     3.188     1.138     1.063  0.8985  0.4391 -0.0000
 
              Baa    -0.0744    -3.894    -1.389    -1.299  0.8408 -0.5414  0.0000
     7 Cl(35) Bbb    -0.0376    -1.970    -0.703    -0.657  0.0000  0.0000  1.0000
              Bcc     0.1120     5.864     2.092     1.956  0.5414  0.8408 -0.0000
 
              Baa    -0.1459    -7.637    -2.725    -2.548  0.0000  0.0000  1.0000
     8 Cl(35) Bbb    -0.0754    -3.947    -1.408    -1.317  0.8214  0.5704  0.0000
              Bcc     0.2213    11.584     4.134     3.864 -0.5704  0.8214 -0.0000
 
              Baa    -0.0117    -6.235    -2.225    -2.080  0.0000  0.0000  1.0000
     9 H(1)   Bbb    -0.0103    -5.506    -1.965    -1.837  0.7750  0.6320 -0.0000
              Bcc     0.0220    11.742     4.190     3.917 -0.6320  0.7750 -0.0000
 
              Baa    -0.0607    -3.176    -1.133    -1.059  0.1059  0.9944 -0.0000
    10 Cl(35) Bbb    -0.0238    -1.247    -0.445    -0.416  0.0000  0.0000  1.0000
              Bcc     0.0845     4.423     1.578     1.475  0.9944 -0.1059 -0.0000
 
              Baa    -0.0025    -1.337    -0.477    -0.446  0.0000  0.0000  1.0000
    11 H(1)   Bbb     0.0012     0.622     0.222     0.207  0.9433 -0.3319  0.0000
              Bcc     0.0013     0.715     0.255     0.238  0.3319  0.9433 -0.0000
 

 ---------------------------------------------------------------------------------

 Calling FoFJK, ICntrl=      2127 FMM=F ISym2X=1 I1Cent= 0 IOpClX= 1 NMat=1 NMatS=1 NMatT=0.
 ***** Axes restored to original set *****
 -------------------------------------------------------------------
 Center     Atomic                   Forces (Hartrees/Bohr)
 Number     Number              X              Y              Z
 -------------------------------------------------------------------
      1        6           0.031892667   -0.028055337   -0.000000000
      2        6          -0.003163749    0.006191731    0.000000000
      3        6          -0.000471616   -0.009821959   -0.000000000
      4        6          -0.030340382    0.017769495    0.000000000
      5        6           0.002629249   -0.001340349   -0.000000000
      6        6           0.026944026    0.018924732   -0.000000000
      7       17          -0.017878436   -0.011671642    0.000000000
      8       17          -0.021320258    0.013127510    0.000000000
      9        1          -0.007803010   -0.006892713    0.000000000
     10       17           0.020142683   -0.011789864   -0.000000000
     11        1          -0.000631174    0.013558397    0.000000000
 -------------------------------------------------------------------
 Cartesian Forces:  Max     0.031892667 RMS     0.013705250

 GradGradGradGradGradGradGradGradGradGradGradGradGradGradGradGradGradGrad
 Berny optimization.
 FormGI is forming the generalized inverse of G from B-inverse, IUseBI=4.
 Internal  Forces:  Max     0.025036454 RMS     0.007739293
 Search for a local minimum.
 Step number   1 out of a maximum of   57
 All quantities printed in internal units (Hartrees-Bohrs-Radians)
 Mixed Optimization -- RFO/linear search
 Second derivative matrix not updated -- first step.
 ITU=  0
     Eigenvalues ---    0.01893   0.01935   0.01950   0.01970   0.02001
     Eigenvalues ---    0.02024   0.02112   0.02376   0.16000   0.16000
     Eigenvalues ---    0.23375   0.23488   0.25000   0.25000   0.25000
     Eigenvalues ---    0.25000   0.33431   0.33981   0.37067   0.37359
     Eigenvalues ---    0.38655   0.40147   0.42170   0.42854   0.44309
     Eigenvalues ---    0.48551   0.50584
 RFO step:  Lambda=-7.34138154D-03 EMin= 1.89340769D-02
 Linear search not attempted -- first point.
 Iteration  1 RMS(Cart)=  0.01944040 RMS(Int)=  0.00012017
 Iteration  2 RMS(Cart)=  0.00015024 RMS(Int)=  0.00002104
 Iteration  3 RMS(Cart)=  0.00000002 RMS(Int)=  0.00002104
 ClnCor:  largest displacement from symmetrization is 5.23D-09 for atom    11.
 Variable       Old X    -DE/DX   Delta X   Delta X   Delta X     New X
                                 (Linear)    (Quad)   (Total)
    R1        2.60113  -0.00662   0.00000  -0.01252  -0.01248   2.58865
    R2        2.68440  -0.01257   0.00000  -0.02892  -0.02892   2.65548
    R3        3.17123   0.02504   0.00000   0.06356   0.06356   3.23480
    R4        2.58402  -0.00347   0.00000  -0.00623  -0.00621   2.57782
    R5        2.67371  -0.01291   0.00000  -0.02959  -0.02960   2.64411
    R6        2.07363  -0.01031   0.00000  -0.02969  -0.02969   2.04394
    R7        2.65784  -0.01475   0.00000  -0.03322  -0.03326   2.62458
    R8        3.19446   0.02333   0.00000   0.06173   0.06173   3.25618
    R9        2.65853  -0.01220   0.00000  -0.02742  -0.02744   2.63109
   R10        2.08301  -0.01357   0.00000  -0.03972  -0.03972   2.04329
   R11        3.19009   0.02135   0.00000   0.05605   0.05605   3.24613
    A1        1.99809   0.00378   0.00000   0.01586   0.01589   2.01398
    A2        2.13451  -0.00223   0.00000  -0.00927  -0.00929   2.12522
    A3        2.15059  -0.00154   0.00000  -0.00659  -0.00660   2.14398
    A4        2.26421  -0.00963   0.00000  -0.03532  -0.03525   2.22896
    A5        1.99670   0.00433   0.00000   0.01902   0.01904   2.01573
    A6        2.14597  -0.00063   0.00000  -0.00037  -0.00038   2.14559
    A7        2.14052  -0.00369   0.00000  -0.01865  -0.01866   2.12186
    A8        2.10155   0.00058   0.00000   0.00029   0.00025   2.10180
    A9        2.09076   0.00053   0.00000   0.00304   0.00306   2.09382
   A10        2.09088  -0.00111   0.00000  -0.00333  -0.00331   2.08757
   A11        2.11358  -0.00002   0.00000  -0.00274  -0.00281   2.11078
   A12        2.08736   0.00030   0.00000   0.00310   0.00313   2.09050
   A13        2.08224  -0.00028   0.00000  -0.00036  -0.00033   2.08191
   A14        2.09224   0.00095   0.00000   0.00291   0.00288   2.09512
   A15        2.10738  -0.00030   0.00000  -0.00077  -0.00075   2.10662
   A16        2.08357  -0.00065   0.00000  -0.00214  -0.00213   2.08144
    D1       -0.00000  -0.00000   0.00000  -0.00000   0.00000   0.00000
    D2        3.14159   0.00000   0.00000   0.00000   0.00000   3.14159
    D3        0.00000   0.00000   0.00000   0.00000   0.00000   0.00000
    D4        3.14159   0.00000   0.00000   0.00000   0.00000   3.14159
    D5        3.14159  -0.00000   0.00000  -0.00000   0.00000   3.14159
    D6       -0.00000  -0.00000   0.00000   0.00000   0.00000   0.00000
    D7        0.00000   0.00000   0.00000  -0.00000  -0.00000   0.00000
    D8        3.14159  -0.00000   0.00000  -0.00000   0.00000   3.14159
    D9       -0.00000   0.00000   0.00000   0.00000   0.00000   0.00000
   D10        3.14159   0.00000   0.00000   0.00000   0.00000   3.14159
   D11        3.14159   0.00000   0.00000   0.00000   0.00000   3.14159
   D12        0.00000   0.00000   0.00000   0.00000  -0.00000   0.00000
   D13        0.00000  -0.00000   0.00000  -0.00000   0.00000   0.00000
   D14        3.14159  -0.00000   0.00000  -0.00000   0.00000   3.14159
   D15        3.14159  -0.00000   0.00000  -0.00000   0.00000   3.14159
   D16       -0.00000  -0.00000   0.00000  -0.00000   0.00000   0.00000
   D17       -0.00000   0.00000   0.00000  -0.00000   0.00000   0.00000
   D18        3.14159  -0.00000   0.00000  -0.00000   0.00000   3.14159
   D19        3.14159   0.00000   0.00000  -0.00000   0.00000   3.14159
   D20        0.00000  -0.00000   0.00000  -0.00000   0.00000   0.00000
         Item               Value     Threshold  Converged?
 Maximum Force            0.025036     0.000450     NO 
 RMS     Force            0.007739     0.000300     NO 
 Maximum Displacement     0.065065     0.001800     NO 
 RMS     Displacement     0.019442     0.001200     NO 
 Predicted change in Energy=-3.742465D-03
 GradGradGradGradGradGradGradGradGradGradGradGradGradGradGradGradGradGrad

                          Input orientation:                          
 ---------------------------------------------------------------------
 Center     Atomic      Atomic             Coordinates (Angstroms)
 Number     Number       Type             X           Y           Z
 ---------------------------------------------------------------------
      1          6           0       -3.171282    0.172180    0.000000
      2          6           0       -1.956893    0.806024    0.000000
      3          6           0       -0.717853    0.235401   -0.000000
      4          6           0       -0.699169   -1.163679   -0.000000
      5          6           0       -1.887291   -1.882933   -0.000000
      6          6           0       -3.118086   -1.232032    0.000000
      7         17           0       -4.560854   -2.164336    0.000000
      8         17           0       -4.643593    1.045389    0.000000
      9          1           0        0.195994    0.813979   -0.000000
     10         17           0        0.804937   -2.004356   -0.000000
     11          1           0       -1.860631   -2.963865   -0.000000
 ---------------------------------------------------------------------
                    Distance matrix (angstroms):
                    1          2          3          4          5
     1  C    0.000000
     2  C    1.369854   0.000000
     3  C    2.454244   1.364122   0.000000
     4  C    2.809958   2.337006   1.399204   0.000000
     5  C    2.423246   2.689857   2.419695   1.388871   0.000000
     6  C    1.405219   2.345643   2.813268   2.419883   1.392311
     7  Cl   2.718495   3.950146   4.530716   3.989226   2.688331
     8  Cl   1.711781   2.697342   4.008430   4.520892   4.021477
     9  H    3.427894   2.152901   1.081605   2.170817   3.407845
    10  Cl   4.532949   3.940296   2.708394   1.723099   2.694964
    11  H    3.398909   3.771118   3.397240   2.142350   1.081261
                    6          7          8          9         10
     6  C    0.000000
     7  Cl   1.717781   0.000000
     8  Cl   2.741135   3.210792   0.000000
     9  H    3.894777   5.612304   4.845116   0.000000
    10  Cl   3.998323   5.368175   6.243991   2.883369   0.000000
    11  H    2.140196   2.816105   4.880471   4.301373   2.833004
                   11
    11  H    0.000000
 Stoichiometry    C6H2Cl3(2)
 Framework group  CS[SG(C6H2Cl3)]
 Deg. of freedom    19
 Full point group                 CS      NOp   2
 Largest Abelian subgroup         CS      NOp   2
 Largest concise Abelian subgroup C1      NOp   1
                         Standard orientation:                         
 ---------------------------------------------------------------------
 Center     Atomic      Atomic             Coordinates (Angstroms)
 Number     Number       Type             X           Y           Z
 ---------------------------------------------------------------------
      1          6           0        1.248768   -0.178317    0.000000
      2          6           0        1.203313    1.190783    0.000000
      3          6           0        0.097042    1.988902   -0.000000
      4          6           0       -1.130283    1.317004   -0.000000
      5          6           0       -1.172111   -0.071237   -0.000000
      6          6           0       -0.000000   -0.822691    0.000000
      7         17           0       -0.102072   -2.537437    0.000000
      8         17           0        2.733231   -1.030704    0.000000
      9          1           0        0.151296    3.069146   -0.000000
     10         17           0       -2.602059    2.213076   -0.000000
     11          1           0       -2.126358   -0.579704   -0.000000
 ---------------------------------------------------------------------
 Rotational constants (GHZ):           1.9108928           0.5990394           0.4560682
 Standard basis: 6-311++G(d,p) (5D, 7F)
 There are   183 symmetry adapted cartesian basis functions of A'  symmetry.
 There are    62 symmetry adapted cartesian basis functions of A"  symmetry.
 There are   174 symmetry adapted basis functions of A'  symmetry.
 There are    62 symmetry adapted basis functions of A"  symmetry.
   236 basis functions,   393 primitive gaussians,   245 cartesian basis functions
    45 alpha electrons       44 beta electrons
       nuclear repulsion energy       614.3182819018 Hartrees.
 NAtoms=   11 NActive=   11 NUniq=   11 SFac= 1.00D+00 NAtFMM=   60 NAOKFM=F Big=F
 Integral buffers will be    131072 words long.
 Raffenetti 2 integral format.
 Two-electron integral symmetry is turned on.
 One-electron integrals computed using PRISM.
 NBasis=   236 RedAO= T EigKep=  1.02D-06  NBF=   174    62
 NBsUse=   236 1.00D-06 EigRej= -1.00D+00 NBFU=   174    62
 Initial guess from the checkpoint file:  "frequency_chks/1235-12_5-ClBzNeutralRadical_Freq.chk"
 B after Tr=    -0.000000    0.000000   -0.000000
         Rot=    1.000000   -0.000000    0.000000    0.000634 Ang=   0.07 deg.
 Initial guess orbital symmetries:
 Alpha Orbitals:
       Occupied  (A') (A') (A') (A') (A') (A') (A') (A') (A') (A')
                 (A') (A') (A') (A') (A') (A") (A') (A") (A') (A")
                 (A') (A') (A') (A') (A') (A') (A') (A') (A') (A')
                 (A') (A') (A') (A") (A') (A') (A") (A") (A') (A')
                 (A") (A') (A') (A") (A")
       Virtual   (A") (A") (A') (A') (A') (A') (A') (A") (A') (A')
                 (A") (A') (A") (A') (A') (A') (A") (A') (A") (A')
                 (A') (A') (A") (A') (A") (A') (A') (A") (A') (A")
                 (A') (A') (A') (A") (A') (A') (A') (A') (A') (A')
                 (A') (A') (A') (A') (A') (A') (A') (A') (A') (A')
                 (A') (A') (A") (A') (A") (A') (A") (A') (A') (A')
                 (A') (A") (A') (A") (A') (A") (A") (A') (A") (A')
                 (A') (A') (A") (A') (A') (A') (A') (A") (A') (A')
                 (A") (A') (A') (A') (A") (A') (A") (A") (A') (A')
                 (A") (A') (A') (A') (A') (A') (A") (A') (A') (A")
                 (A') (A") (A') (A') (A') (A') (A') (A") (A") (A')
                 (A") (A') (A') (A') (A') (A") (A') (A") (A') (A')
                 (A") (A') (A') (A") (A') (A') (A") (A") (A') (A')
                 (A") (A') (A') (A') (A") (A") (A") (A') (A") (A')
                 (A') (A') (A') (A') (A') (A') (A') (A') (A") (A')
                 (A') (A') (A") (A") (A") (A") (A') (A") (A') (A')
                 (A') (A') (A') (A') (A') (A') (A') (A') (A') (A')
                 (A') (A') (A') (A') (A') (A') (A') (A') (A') (A")
                 (A") (A") (A') (A') (A') (A') (A') (A') (A') (A')
                 (A')
 Beta  Orbitals:
       Occupied  (A') (A') (A') (A') (A') (A') (A') (A') (A') (A')
                 (A') (A') (A') (A') (A') (A") (A") (A') (A') (A")
                 (A') (A') (A') (A') (A') (A') (A') (A') (A') (A')
                 (A') (A') (A') (A") (A') (A') (A") (A") (A') (A')
                 (A") (A') (A") (A")
       Virtual   (A') (A") (A") (A') (A') (A') (A') (A') (A") (A')
                 (A') (A") (A") (A') (A') (A') (A') (A") (A') (A")
                 (A') (A') (A') (A") (A') (A") (A') (A') (A') (A")
                 (A') (A") (A') (A') (A") (A') (A') (A') (A') (A')
                 (A') (A') (A') (A') (A') (A') (A') (A') (A') (A')
                 (A') (A') (A') (A") (A') (A") (A') (A") (A') (A')
                 (A') (A') (A") (A') (A') (A") (A') (A") (A") (A")
                 (A') (A') (A") (A') (A') (A') (A') (A') (A") (A')
                 (A') (A") (A') (A') (A') (A") (A") (A') (A") (A')
                 (A") (A') (A') (A') (A') (A') (A') (A") (A') (A')
                 (A") (A') (A") (A') (A') (A') (A') (A') (A") (A')
                 (A") (A") (A') (A') (A') (A') (A") (A") (A') (A')
                 (A') (A") (A') (A') (A") (A') (A') (A") (A") (A')
                 (A') (A") (A') (A') (A") (A') (A") (A") (A") (A')
                 (A') (A') (A') (A') (A') (A') (A') (A') (A') (A")
                 (A') (A') (A') (A") (A") (A") (A") (A') (A") (A')
                 (A') (A') (A') (A') (A') (A') (A') (A') (A') (A')
                 (A') (A') (A') (A') (A') (A') (A') (A') (A') (A')
                 (A") (A") (A") (A') (A') (A') (A') (A') (A') (A')
                 (A') (A')
 Initial guess <Sx>= 0.0000 <Sy>= 0.0000 <Sz>= 0.5000 <S**2>= 0.7630 S= 0.5065
 ExpMin= 3.60D-02 ExpMax= 1.06D+05 ExpMxC= 3.62D+03 IAcc=3 IRadAn=         5 AccDes= 0.00D+00
 Harris functional with IExCor= 1009 and IRadAn=       5 diagonalized for initial guess.
 HarFok:  IExCor= 1009 AccDes= 0.00D+00 IRadAn=         5 IDoV= 1 UseB2=F ITyADJ=14
 ICtDFT=  3500011 ScaDFX=  1.000000  1.000000  1.000000  1.000000
 FoFCou: FMM=F IPFlag=           0 FMFlag=      100000 FMFlg1=           0
         NFxFlg=           0 DoJE=T BraDBF=F KetDBF=T FulRan=T
         wScrn=  0.000000 ICntrl=       500 IOpCl=  0 I1Cent=   200000004 NGrid=           0
         NMat0=    1 NMatS0=      1 NMatT0=    0 NMatD0=    1 NMtDS0=    0 NMtDT0=    0
 Petite list used in FoFCou.
 Keep R1 and R2 ints in memory in symmetry-blocked form, NReq=617299900.
 Requested convergence on RMS density matrix=1.00D-08 within 128 cycles.
 Requested convergence on MAX density matrix=1.00D-06.
 Requested convergence on             energy=1.00D-06.
 No special actions if energy rises.
 SCF Done:  E(UM062X) =  -1610.30632322     A.U. after   18 cycles
            NFock= 18  Conv=0.63D-08     -V/T= 2.0023
 <Sx>= 0.0000 <Sy>= 0.0000 <Sz>= 0.5000 <S**2>= 0.7626 S= 0.5063
 <L.S>=  0.00000000000    
 Annihilation of the first spin contaminant:
 S**2 before annihilation     0.7626,   after     0.7501
 Calling FoFJK, ICntrl=      2127 FMM=F ISym2X=1 I1Cent= 0 IOpClX= 1 NMat=1 NMatS=1 NMatT=0.
 ***** Axes restored to original set *****
 -------------------------------------------------------------------
 Center     Atomic                   Forces (Hartrees/Bohr)
 Number     Number              X              Y              Z
 -------------------------------------------------------------------
      1        6           0.008092579   -0.009575257   -0.000000000
      2        6          -0.002758566    0.004663384    0.000000000
      3        6           0.002110293   -0.003593580   -0.000000000
      4        6          -0.007921770    0.006958929    0.000000000
      5        6           0.000435907   -0.003739000   -0.000000000
      6        6           0.004878431    0.007701527    0.000000000
      7       17          -0.004649244   -0.003436216    0.000000000
      8       17          -0.005714326    0.004096211    0.000000000
      9        1           0.000679364    0.000154139   -0.000000000
     10       17           0.005163029   -0.002790668   -0.000000000
     11        1          -0.000315696   -0.000439468   -0.000000000
 -------------------------------------------------------------------
 Cartesian Forces:  Max     0.009575257 RMS     0.004009238

 GradGradGradGradGradGradGradGradGradGradGradGradGradGradGradGradGradGrad
 Berny optimization.
 Using GEDIIS/GDIIS optimizer.
 FormGI is forming the generalized inverse of G from B-inverse, IUseBI=4.
 Internal  Forces:  Max     0.007004586 RMS     0.001926626
 Search for a local minimum.
 Step number   2 out of a maximum of   57
 All quantities printed in internal units (Hartrees-Bohrs-Radians)
 Mixed Optimization -- RFO/linear search
 Update second derivatives using D2CorX and points    1    2
 DE= -4.35D-03 DEPred=-3.74D-03 R= 1.16D+00
 TightC=F SS=  1.41D+00  RLast= 1.40D-01 DXNew= 5.0454D-01 4.2004D-01
 Trust test= 1.16D+00 RLast= 1.40D-01 DXMaxT set to 4.20D-01
 ITU=  1  0
 Use linear search instead of GDIIS.
     Eigenvalues ---    0.01893   0.01935   0.01950   0.01970   0.02001
     Eigenvalues ---    0.02024   0.02116   0.02371   0.15965   0.16008
     Eigenvalues ---    0.21303   0.23752   0.24405   0.25000   0.25000
     Eigenvalues ---    0.25036   0.31725   0.33701   0.35068   0.37218
     Eigenvalues ---    0.38127   0.40080   0.42582   0.43065   0.44323
     Eigenvalues ---    0.49391   0.51281
 RFO step:  Lambda=-3.77961111D-04 EMin= 1.89330862D-02
 Quartic linear search produced a step of  0.24292.
 Iteration  1 RMS(Cart)=  0.00603710 RMS(Int)=  0.00003278
 Iteration  2 RMS(Cart)=  0.00004315 RMS(Int)=  0.00000827
 Iteration  3 RMS(Cart)=  0.00000000 RMS(Int)=  0.00000827
 ClnCor:  largest displacement from symmetrization is 1.34D-11 for atom    10.
 Variable       Old X    -DE/DX   Delta X   Delta X   Delta X     New X
                                 (Linear)    (Quad)   (Total)
    R1        2.58865   0.00007  -0.00303   0.00252  -0.00050   2.58815
    R2        2.65548  -0.00272  -0.00703  -0.00262  -0.00964   2.64584
    R3        3.23480   0.00700   0.01544   0.01033   0.02577   3.26056
    R4        2.57782   0.00204  -0.00151   0.00618   0.00469   2.58250
    R5        2.64411  -0.00159  -0.00719   0.00129  -0.00591   2.63821
    R6        2.04394   0.00066  -0.00721   0.00808   0.00087   2.04481
    R7        2.62458   0.00019  -0.00808   0.00697  -0.00112   2.62347
    R8        3.25618   0.00587   0.01500   0.00784   0.02283   3.27902
    R9        2.63109  -0.00035  -0.00667   0.00418  -0.00249   2.62859
   R10        2.04329   0.00043  -0.00965   0.00921  -0.00044   2.04284
   R11        3.24613   0.00577   0.01362   0.00844   0.02206   3.26819
    A1        2.01398   0.00259   0.00386   0.00962   0.01349   2.02747
    A2        2.12522  -0.00228  -0.00226  -0.00942  -0.01168   2.11354
    A3        2.14398  -0.00032  -0.00160  -0.00020  -0.00181   2.14217
    A4        2.22896  -0.00320  -0.00856  -0.00871  -0.01724   2.21172
    A5        2.01573  -0.00005   0.00462  -0.00309   0.00154   2.01727
    A6        2.14559   0.00026  -0.00009   0.00163   0.00154   2.14713
    A7        2.12186  -0.00021  -0.00453   0.00146  -0.00308   2.11879
    A8        2.10180   0.00245   0.00006   0.01282   0.01286   2.11467
    A9        2.09382  -0.00136   0.00074  -0.00771  -0.00695   2.08686
   A10        2.08757  -0.00109  -0.00080  -0.00512  -0.00591   2.08166
   A11        2.11078  -0.00254  -0.00068  -0.01353  -0.01424   2.09654
   A12        2.09050   0.00160   0.00076   0.00901   0.00978   2.10028
   A13        2.08191   0.00094  -0.00008   0.00452   0.00446   2.08637
   A14        2.09512   0.00074   0.00070   0.00290   0.00359   2.09871
   A15        2.10662   0.00022  -0.00018   0.00136   0.00118   2.10780
   A16        2.08144  -0.00096  -0.00052  -0.00426  -0.00477   2.07667
    D1       -0.00000  -0.00000   0.00000  -0.00000   0.00000   0.00000
    D2        3.14159  -0.00000   0.00000  -0.00000   0.00000   3.14159
    D3        0.00000   0.00000   0.00000   0.00000   0.00000   0.00000
    D4        3.14159   0.00000   0.00000  -0.00000   0.00000   3.14159
    D5        3.14159   0.00000   0.00000   0.00000   0.00000   3.14159
    D6       -0.00000   0.00000   0.00000   0.00000   0.00000   0.00000
    D7       -0.00000  -0.00000   0.00000  -0.00000   0.00000   0.00000
    D8        3.14159  -0.00000   0.00000   0.00000   0.00000   3.14159
    D9        0.00000   0.00000   0.00000   0.00000   0.00000   0.00000
   D10        3.14159   0.00000   0.00000   0.00000   0.00000   3.14159
   D11        3.14159   0.00000   0.00000   0.00000   0.00000   3.14159
   D12       -0.00000   0.00000   0.00000   0.00000   0.00000   0.00000
   D13       -0.00000  -0.00000   0.00000  -0.00000   0.00000   0.00000
   D14        3.14159  -0.00000   0.00000   0.00000   0.00000   3.14159
   D15        3.14159  -0.00000   0.00000  -0.00000   0.00000   3.14159
   D16        0.00000  -0.00000   0.00000   0.00000   0.00000   0.00000
   D17       -0.00000  -0.00000   0.00000  -0.00000   0.00000   0.00000
   D18        3.14159  -0.00000   0.00000   0.00000   0.00000   3.14159
   D19        3.14159  -0.00000   0.00000  -0.00000   0.00000   3.14159
   D20        0.00000  -0.00000   0.00000   0.00000   0.00000   0.00000
         Item               Value     Threshold  Converged?
 Maximum Force            0.007005     0.000450     NO 
 RMS     Force            0.001927     0.000300     NO 
 Maximum Displacement     0.018500     0.001800     NO 
 RMS     Displacement     0.006032     0.001200     NO 
 Predicted change in Energy=-3.533642D-04
 GradGradGradGradGradGradGradGradGradGradGradGradGradGradGradGradGradGrad

                          Input orientation:                          
 ---------------------------------------------------------------------
 Center     Atomic      Atomic             Coordinates (Angstroms)
 Number     Number       Type             X           Y           Z
 ---------------------------------------------------------------------
      1          6           0       -3.163846    0.168204    0.000000
      2          6           0       -1.957041    0.815813    0.000000
      3          6           0       -0.719069    0.236999   -0.000000
      4          6           0       -0.706339   -1.159021   -0.000000
      5          6           0       -1.887708   -1.888189   -0.000000
      6          6           0       -3.113668   -1.231015    0.000000
      7         17           0       -4.567030   -2.168432    0.000000
      8         17           0       -4.647701    1.048679    0.000000
      9          1           0        0.199375    0.809123   -0.000000
     10         17           0        0.810607   -2.001472   -0.000000
     11          1           0       -1.862301   -2.968917   -0.000000
 ---------------------------------------------------------------------
                    Distance matrix (angstroms):
                    1          2          3          4          5
     1  C    0.000000
     2  C    1.369590   0.000000
     3  C    2.445745   1.366602   0.000000
     4  C    2.793003   2.337569   1.396078   0.000000
     5  C    2.420182   2.704891   2.425312   1.388278   0.000000
     6  C    1.400118   2.351020   2.808767   2.408405   1.390991
     7  Cl   2.725581   3.964563   4.537940   3.990468   2.693938
     8  Cl   1.725417   2.700718   4.011605   4.517551   4.030230
     9  H    3.423745   2.156427   1.082065   2.166544   3.410485
    10  Cl   4.528109   3.949301   2.711210   1.735180   2.700692
    11  H    3.396402   3.785916   3.403656   2.147550   1.081027
                    6          7          8          9         10
     6  C    0.000000
     7  Cl   1.729454   0.000000
     8  Cl   2.747774   3.218122   0.000000
     9  H    3.890812   5.620004   4.852992   0.000000
    10  Cl   3.999193   5.380228   6.252724   2.876291   0.000000
    11  H    2.141547   2.820697   4.888715   4.303963   2.842603
                   11
    11  H    0.000000
 Stoichiometry    C6H2Cl3(2)
 Framework group  CS[SG(C6H2Cl3)]
 Deg. of freedom    19
 Full point group                 CS      NOp   2
 Largest Abelian subgroup         CS      NOp   2
 Largest concise Abelian subgroup C1      NOp   1
                         Standard orientation:                         
 ---------------------------------------------------------------------
 Center     Atomic      Atomic             Coordinates (Angstroms)
 Number     Number       Type             X           Y           Z
 ---------------------------------------------------------------------
      1          6           0        1.241101   -0.170093   -0.000000
      2          6           0        1.207473    1.199084   -0.000000
      3          6           0        0.092346    1.989080    0.000000
      4          6           0       -1.127462    1.310034    0.000000
      5          6           0       -1.177303   -0.077349    0.000000
      6          6           0        0.000000   -0.818168   -0.000000
      7         17           0       -0.096408   -2.544932   -0.000000
      8         17           0        2.740001   -1.024704   -0.000000
      9          1           0        0.135650    3.070279    0.000000
     10         17           0       -2.609668    2.212208    0.000000
     11          1           0       -2.129305   -0.589514    0.000000
 ---------------------------------------------------------------------
 Rotational constants (GHZ):           1.9011934           0.5976568           0.4547136
 Standard basis: 6-311++G(d,p) (5D, 7F)
 There are   183 symmetry adapted cartesian basis functions of A'  symmetry.
 There are    62 symmetry adapted cartesian basis functions of A"  symmetry.
 There are   174 symmetry adapted basis functions of A'  symmetry.
 There are    62 symmetry adapted basis functions of A"  symmetry.
   236 basis functions,   393 primitive gaussians,   245 cartesian basis functions
    45 alpha electrons       44 beta electrons
       nuclear repulsion energy       613.1778403734 Hartrees.
 NAtoms=   11 NActive=   11 NUniq=   11 SFac= 1.00D+00 NAtFMM=   60 NAOKFM=F Big=F
 Integral buffers will be    131072 words long.
 Raffenetti 2 integral format.
 Two-electron integral symmetry is turned on.
 One-electron integrals computed using PRISM.
 NBasis=   236 RedAO= T EigKep=  1.04D-06  NBF=   174    62
 NBsUse=   236 1.00D-06 EigRej= -1.00D+00 NBFU=   174    62
 Initial guess from the checkpoint file:  "frequency_chks/1235-12_5-ClBzNeutralRadical_Freq.chk"
 B after Tr=     0.000000   -0.000000    0.000000
         Rot=    0.999999   -0.000000    0.000000   -0.001140 Ang=  -0.13 deg.
 Initial guess orbital symmetries:
 Alpha Orbitals:
       Occupied  (A') (A') (A') (A') (A') (A') (A') (A') (A') (A')
                 (A') (A') (A') (A') (A') (A") (A') (A") (A') (A")
                 (A') (A') (A') (A') (A') (A') (A') (A') (A') (A')
                 (A') (A') (A') (A") (A') (A') (A") (A") (A') (A')
                 (A") (A') (A') (A") (A")
       Virtual   (A") (A") (A') (A') (A') (A') (A') (A") (A') (A')
                 (A') (A") (A") (A') (A') (A') (A") (A') (A") (A')
                 (A') (A') (A") (A') (A") (A') (A') (A") (A') (A')
                 (A") (A') (A') (A") (A') (A') (A') (A') (A') (A')
                 (A') (A') (A') (A') (A') (A') (A') (A') (A') (A')
                 (A') (A') (A") (A') (A") (A') (A') (A") (A') (A')
                 (A') (A") (A') (A") (A') (A") (A") (A') (A") (A')
                 (A') (A') (A") (A') (A') (A') (A') (A") (A') (A')
                 (A") (A') (A') (A') (A") (A') (A") (A") (A') (A')
                 (A") (A') (A') (A') (A') (A') (A") (A') (A') (A')
                 (A") (A") (A') (A') (A') (A') (A') (A") (A") (A')
                 (A") (A') (A') (A') (A') (A") (A') (A") (A') (A')
                 (A") (A') (A') (A") (A') (A') (A") (A") (A') (A')
                 (A") (A') (A') (A') (A") (A") (A") (A') (A") (A')
                 (A') (A') (A') (A') (A') (A') (A') (A') (A") (A')
                 (A') (A') (A") (A") (A") (A") (A') (A") (A') (A')
                 (A') (A') (A') (A') (A') (A') (A') (A') (A') (A')
                 (A') (A') (A') (A') (A') (A') (A') (A') (A') (A")
                 (A") (A") (A') (A') (A') (A') (A') (A') (A') (A')
                 (A')
 Beta  Orbitals:
       Occupied  (A') (A') (A') (A') (A') (A') (A') (A') (A') (A')
                 (A') (A') (A') (A') (A') (A") (A') (A") (A') (A")
                 (A') (A') (A') (A') (A') (A') (A') (A') (A') (A')
                 (A') (A') (A') (A") (A') (A') (A") (A") (A') (A')
                 (A") (A') (A") (A")
       Virtual   (A') (A") (A") (A') (A') (A') (A') (A') (A") (A')
                 (A') (A") (A") (A') (A') (A') (A') (A") (A') (A")
                 (A') (A') (A') (A") (A') (A") (A') (A') (A') (A")
                 (A') (A") (A') (A') (A") (A') (A') (A') (A') (A')
                 (A') (A') (A') (A') (A') (A') (A') (A') (A') (A')
                 (A') (A') (A') (A") (A') (A") (A') (A') (A") (A')
                 (A') (A') (A") (A') (A') (A") (A") (A') (A") (A")
                 (A') (A') (A") (A') (A') (A') (A') (A') (A") (A')
                 (A') (A") (A') (A') (A') (A") (A') (A") (A") (A')
                 (A') (A') (A") (A') (A') (A') (A') (A") (A') (A')
                 (A') (A") (A") (A') (A') (A') (A') (A') (A") (A")
                 (A') (A") (A') (A') (A') (A') (A") (A') (A") (A')
                 (A') (A") (A') (A') (A") (A') (A') (A") (A") (A')
                 (A') (A") (A') (A') (A") (A') (A") (A") (A') (A")
                 (A') (A') (A') (A') (A') (A') (A') (A') (A') (A")
                 (A') (A') (A') (A") (A") (A") (A") (A') (A") (A')
                 (A') (A') (A') (A') (A') (A') (A') (A') (A') (A')
                 (A') (A') (A') (A') (A') (A') (A') (A') (A') (A')
                 (A") (A") (A") (A') (A') (A') (A') (A') (A') (A')
                 (A') (A')
 Initial guess <Sx>= 0.0000 <Sy>= 0.0000 <Sz>= 0.5000 <S**2>= 0.7627 S= 0.5063
 Keep R1 and R2 ints in memory in symmetry-blocked form, NReq=617299900.
 Requested convergence on RMS density matrix=1.00D-08 within 128 cycles.
 Requested convergence on MAX density matrix=1.00D-06.
 Requested convergence on             energy=1.00D-06.
 No special actions if energy rises.
 SCF Done:  E(UM062X) =  -1610.30673056     A.U. after   19 cycles
            NFock= 19  Conv=0.81D-08     -V/T= 2.0023
 <Sx>= 0.0000 <Sy>= 0.0000 <Sz>= 0.5000 <S**2>= 0.7628 S= 0.5064
 <L.S>=  0.00000000000    
 Annihilation of the first spin contaminant:
 S**2 before annihilation     0.7628,   after     0.7501
 Calling FoFJK, ICntrl=      2127 FMM=F ISym2X=1 I1Cent= 0 IOpClX= 1 NMat=1 NMatS=1 NMatT=0.
 ***** Axes restored to original set *****
 -------------------------------------------------------------------
 Center     Atomic                   Forces (Hartrees/Bohr)
 Number     Number              X              Y              Z
 -------------------------------------------------------------------
      1        6           0.000779446   -0.001778091   -0.000000000
      2        6          -0.000940332    0.000805168    0.000000000
      3        6           0.001312150   -0.000435275   -0.000000000
      4        6          -0.001495197    0.001345263    0.000000000
      5        6           0.000529016   -0.001399106   -0.000000000
      6        6          -0.000518518    0.001569566    0.000000000
      7       17          -0.000192150   -0.000147622    0.000000000
      8       17          -0.000633554    0.000659362    0.000000000
      9        1           0.000266901    0.000076240   -0.000000000
     10       17           0.000810631   -0.000381920   -0.000000000
     11        1           0.000081606   -0.000313585   -0.000000000
 -------------------------------------------------------------------
 Cartesian Forces:  Max     0.001778091 RMS     0.000740758

 GradGradGradGradGradGradGradGradGradGradGradGradGradGradGradGradGradGrad
 Berny optimization.
 Using GEDIIS/GDIIS optimizer.
 FormGI is forming the generalized inverse of G from B-inverse, IUseBI=4.
 Internal  Forces:  Max     0.000934178 RMS     0.000374697
 Search for a local minimum.
 Step number   3 out of a maximum of   57
 All quantities printed in internal units (Hartrees-Bohrs-Radians)
 Mixed Optimization -- En-DIIS/RFO-DIIS
 Update second derivatives using D2CorX and points    1    2    3
 DE= -4.07D-04 DEPred=-3.53D-04 R= 1.15D+00
 TightC=F SS=  1.41D+00  RLast= 5.54D-02 DXNew= 7.0642D-01 1.6616D-01
 Trust test= 1.15D+00 RLast= 5.54D-02 DXMaxT set to 4.20D-01
 ITU=  1  1  0
 Use linear search instead of GDIIS.
     Eigenvalues ---    0.01893   0.01935   0.01949   0.01969   0.02001
     Eigenvalues ---    0.02023   0.02117   0.02368   0.15884   0.16020
     Eigenvalues ---    0.18430   0.23635   0.24405   0.25000   0.25014
     Eigenvalues ---    0.25047   0.31452   0.33706   0.35191   0.37337
     Eigenvalues ---    0.38087   0.40048   0.42602   0.43362   0.44385
     Eigenvalues ---    0.49531   0.51620
 RFO step:  Lambda=-1.04794317D-05 EMin= 1.89300618D-02
 Quartic linear search produced a step of  0.16996.
 Iteration  1 RMS(Cart)=  0.00158740 RMS(Int)=  0.00000185
 Iteration  2 RMS(Cart)=  0.00000272 RMS(Int)=  0.00000031
 Iteration  3 RMS(Cart)=  0.00000000 RMS(Int)=  0.00000031
 ClnCor:  largest displacement from symmetrization is 7.66D-10 for atom    11.
 Variable       Old X    -DE/DX   Delta X   Delta X   Delta X     New X
                                 (Linear)    (Quad)   (Total)
    R1        2.58815   0.00024  -0.00008   0.00041   0.00032   2.58847
    R2        2.64584  -0.00056  -0.00164  -0.00064  -0.00228   2.64356
    R3        3.26056   0.00088   0.00438  -0.00008   0.00430   3.26486
    R4        2.58250   0.00092   0.00080   0.00134   0.00214   2.58464
    R5        2.63821  -0.00012  -0.00100   0.00016  -0.00085   2.63736
    R6        2.04481   0.00027   0.00015   0.00038   0.00053   2.04533
    R7        2.62347   0.00044  -0.00019   0.00088   0.00069   2.62416
    R8        3.27902   0.00089   0.00388   0.00046   0.00434   3.28335
    R9        2.62859   0.00093  -0.00042   0.00239   0.00197   2.63056
   R10        2.04284   0.00032  -0.00008   0.00061   0.00053   2.04337
   R11        3.26819   0.00024   0.00375  -0.00155   0.00220   3.27039
    A1        2.02747   0.00047   0.00229   0.00043   0.00273   2.03020
    A2        2.11354  -0.00062  -0.00199  -0.00135  -0.00334   2.11020
    A3        2.14217   0.00015  -0.00031   0.00092   0.00061   2.14278
    A4        2.21172  -0.00024  -0.00293   0.00082  -0.00211   2.20961
    A5        2.01727  -0.00040   0.00026  -0.00180  -0.00154   2.01573
    A6        2.14713   0.00027   0.00026   0.00125   0.00151   2.14864
    A7        2.11879   0.00013  -0.00052   0.00055   0.00003   2.11882
    A8        2.11467   0.00075   0.00219   0.00198   0.00417   2.11883
    A9        2.08686  -0.00048  -0.00118  -0.00137  -0.00255   2.08432
   A10        2.08166  -0.00027  -0.00100  -0.00062  -0.00162   2.08003
   A11        2.09654  -0.00066  -0.00242  -0.00135  -0.00377   2.09276
   A12        2.10028   0.00025   0.00166  -0.00024   0.00143   2.10171
   A13        2.08637   0.00041   0.00076   0.00159   0.00235   2.08872
   A14        2.09871   0.00008   0.00061  -0.00008   0.00053   2.09924
   A15        2.10780  -0.00000   0.00020  -0.00017   0.00003   2.10783
   A16        2.07667  -0.00008  -0.00081   0.00026  -0.00056   2.07612
    D1        0.00000   0.00000   0.00000   0.00000  -0.00000   0.00000
    D2        3.14159   0.00000   0.00000   0.00000   0.00000   3.14159
    D3       -0.00000  -0.00000   0.00000  -0.00000   0.00000   0.00000
    D4        3.14159  -0.00000   0.00000  -0.00000   0.00000   3.14159
    D5        3.14159  -0.00000   0.00000  -0.00000   0.00000   3.14159
    D6        0.00000  -0.00000   0.00000  -0.00000  -0.00000   0.00000
    D7       -0.00000   0.00000   0.00000   0.00000   0.00000   0.00000
    D8        3.14159   0.00000   0.00000   0.00000   0.00000   3.14159
    D9        0.00000  -0.00000   0.00000  -0.00000  -0.00000   0.00000
   D10        3.14159  -0.00000   0.00000  -0.00000   0.00000   3.14159
   D11        3.14159  -0.00000   0.00000  -0.00000   0.00000   3.14159
   D12       -0.00000  -0.00000   0.00000  -0.00000   0.00000   0.00000
   D13       -0.00000   0.00000   0.00000   0.00000   0.00000   0.00000
   D14        3.14159   0.00000   0.00000   0.00000   0.00000   3.14159
   D15        3.14159   0.00000   0.00000   0.00000   0.00000   3.14159
   D16        0.00000   0.00000   0.00000   0.00000   0.00000   0.00000
   D17        0.00000   0.00000   0.00000   0.00000  -0.00000   0.00000
[...]
      6        6          -0.000407416   -0.000056869    0.000000000
      7       17           0.000259383    0.000157778   -0.000000000
      8       17           0.000083279    0.000032959   -0.000000000
      9        1           0.000011754   -0.000007260   -0.000000000
     10       17           0.000104152   -0.000056587   -0.000000000
     11        1           0.000027332   -0.000031012   -0.000000000
 -------------------------------------------------------------------
 Cartesian Forces:  Max     0.000407416 RMS     0.000133608
 FormGI is forming the generalized inverse of G from B-inverse, IUseBI=4.

 GradGradGradGradGradGradGradGradGradGradGradGradGradGradGradGradGradGrad
 Berny optimization.
 Internal  Forces:  Max     0.000303099 RMS     0.000074788
 Search for a local minimum.
 Step number   1 out of a maximum of    2
 All quantities printed in internal units (Hartrees-Bohrs-Radians)
 Second derivative matrix not updated -- analytic derivatives used.
 ITU=  0
     Eigenvalues ---    0.01594   0.01793   0.01897   0.02369   0.02740
     Eigenvalues ---    0.02978   0.03373   0.03641   0.10557   0.11405
     Eigenvalues ---    0.15260   0.16262   0.17152   0.17907   0.18921
     Eigenvalues ---    0.21468   0.25001   0.27464   0.29119   0.30869
     Eigenvalues ---    0.36741   0.37194   0.43138   0.44312   0.48145
     Eigenvalues ---    0.49505   0.52777
 Angle between quadratic step and forces=  15.27 degrees.
 Linear search not attempted -- first point.
 Iteration  1 RMS(Cart)=  0.00043834 RMS(Int)=  0.00000015
 Iteration  2 RMS(Cart)=  0.00000020 RMS(Int)=  0.00000002
 ClnCor:  largest displacement from symmetrization is 3.00D-10 for atom    11.
 Variable       Old X    -DE/DX   Delta X   Delta X   Delta X     New X
                                 (Linear)    (Quad)   (Total)
    R1        2.58847   0.00005   0.00000   0.00015   0.00015   2.58863
    R2        2.64356  -0.00002   0.00000  -0.00020  -0.00020   2.64336
    R3        3.26486  -0.00005   0.00000  -0.00005  -0.00005   3.26482
    R4        2.58464   0.00003   0.00000   0.00003   0.00003   2.58467
    R5        2.63736   0.00009   0.00000   0.00027   0.00027   2.63763
    R6        2.04533   0.00001   0.00000  -0.00005  -0.00005   2.04528
    R7        2.62416  -0.00004   0.00000  -0.00029  -0.00029   2.62387
    R8        3.28335   0.00012   0.00000   0.00082   0.00082   3.28418
    R9        2.63056   0.00012   0.00000   0.00049   0.00049   2.63105
   R10        2.04337   0.00003   0.00000   0.00006   0.00006   2.04344
   R11        3.27039  -0.00030   0.00000  -0.00138  -0.00138   3.26901
    A1        2.03020   0.00008   0.00000   0.00062   0.00062   2.03081
    A2        2.11020  -0.00015   0.00000  -0.00092  -0.00092   2.10928
    A3        2.14278   0.00007   0.00000   0.00030   0.00030   2.14309
    A4        2.20961   0.00003   0.00000   0.00017   0.00017   2.20977
    A5        2.01573  -0.00015   0.00000  -0.00099  -0.00099   2.01474
    A6        2.14864   0.00008   0.00000   0.00070   0.00070   2.14934
    A7        2.11882   0.00007   0.00000   0.00029   0.00029   2.11910
    A8        2.11883   0.00017   0.00000   0.00106   0.00106   2.11989
    A9        2.08432  -0.00009   0.00000  -0.00063  -0.00063   2.08369
   A10        2.08003  -0.00007   0.00000  -0.00043  -0.00043   2.07960
   A11        2.09276  -0.00006   0.00000  -0.00028  -0.00028   2.09248
   A12        2.10171   0.00000   0.00000  -0.00014  -0.00014   2.10156
   A13        2.08872   0.00006   0.00000   0.00042   0.00042   2.08914
   A14        2.09924  -0.00006   0.00000  -0.00057  -0.00057   2.09867
   A15        2.10783   0.00005   0.00000   0.00034   0.00034   2.10817
   A16        2.07612   0.00001   0.00000   0.00023   0.00023   2.07635
    D1       -0.00000  -0.00000   0.00000   0.00000   0.00000   0.00000
    D2        3.14159   0.00000   0.00000  -0.00000   0.00000   3.14159
    D3        0.00000   0.00000   0.00000   0.00000   0.00000   0.00000
    D4        3.14159   0.00000   0.00000  -0.00000   0.00000   3.14159
    D5        3.14159  -0.00000   0.00000   0.00000   0.00000   3.14159
    D6       -0.00000  -0.00000   0.00000   0.00000   0.00000   0.00000
    D7       -0.00000   0.00000   0.00000  -0.00000   0.00000   0.00000
    D8        3.14159  -0.00000   0.00000  -0.00000   0.00000   3.14159
    D9        0.00000   0.00000   0.00000   0.00000  -0.00000   0.00000
   D10        3.14159   0.00000   0.00000   0.00000   0.00000   3.14159
   D11        3.14159   0.00000   0.00000   0.00000   0.00000   3.14159
   D12       -0.00000   0.00000   0.00000   0.00000   0.00000   0.00000
   D13        0.00000  -0.00000   0.00000  -0.00000   0.00000   0.00000
   D14        3.14159  -0.00000   0.00000  -0.00000   0.00000   3.14159
   D15        3.14159  -0.00000   0.00000  -0.00000   0.00000   3.14159
   D16       -0.00000  -0.00000   0.00000  -0.00000   0.00000   0.00000
   D17       -0.00000   0.00000   0.00000  -0.00000   0.00000   0.00000
   D18        3.14159  -0.00000   0.00000  -0.00000   0.00000   3.14159
   D19        3.14159   0.00000   0.00000  -0.00000   0.00000   3.14159
   D20        0.00000   0.00000   0.00000  -0.00000   0.00000   0.00000
         Item               Value     Threshold  Converged?
 Maximum Force            0.000303     0.000450     YES
 RMS     Force            0.000075     0.000300     YES
 Maximum Displacement     0.001209     0.001800     YES
 RMS     Displacement     0.000438     0.001200     YES
 Predicted change in Energy=-7.180594D-07
 Optimization completed.
    -- Stationary point found.
                           ----------------------------
                           !   Optimized Parameters   !
                           ! (Angstroms and Degrees)  !
 --------------------------                            --------------------------
 ! Name  Definition              Value          Derivative Info.                !
 --------------------------------------------------------------------------------
 ! R1    R(1,2)                  1.3698         -DE/DX =    0.0                 !
 ! R2    R(1,6)                  1.3989         -DE/DX =    0.0                 !
 ! R3    R(1,8)                  1.7277         -DE/DX =   -0.0001              !
 ! R4    R(2,3)                  1.3677         -DE/DX =    0.0                 !
 ! R5    R(3,4)                  1.3956         -DE/DX =    0.0001              !
 ! R6    R(3,9)                  1.0823         -DE/DX =    0.0                 !
 ! R7    R(4,5)                  1.3886         -DE/DX =    0.0                 !
 ! R8    R(4,10)                 1.7375         -DE/DX =    0.0001              !
 ! R9    R(5,6)                  1.392          -DE/DX =    0.0001              !
 ! R10   R(5,11)                 1.0813         -DE/DX =    0.0                 !
 ! R11   R(6,7)                  1.7306         -DE/DX =   -0.0003              !
 ! A1    A(2,1,6)              116.3218         -DE/DX =    0.0001              !
 ! A2    A(2,1,8)              120.9058         -DE/DX =   -0.0001              !
 ! A3    A(6,1,8)              122.7725         -DE/DX =    0.0001              !
 ! A4    A(1,2,3)              126.6012         -DE/DX =    0.0                 !
 ! A5    A(2,3,4)              115.4927         -DE/DX =   -0.0002              !
 ! A6    A(2,3,9)              123.1081         -DE/DX =    0.0001              !
 ! A7    A(4,3,9)              121.3992         -DE/DX =    0.0001              !
 ! A8    A(3,4,5)              121.4003         -DE/DX =    0.0002              !
 ! A9    A(3,4,10)             119.4225         -DE/DX =   -0.0001              !
 ! A10   A(5,4,10)             119.1772         -DE/DX =   -0.0001              !
 ! A11   A(4,5,6)              119.9065         -DE/DX =   -0.0001              !
 ! A12   A(4,5,11)             120.4189         -DE/DX =    0.0                 !
 ! A13   A(6,5,11)             119.6746         -DE/DX =    0.0001              !
 ! A14   A(1,6,5)              120.2776         -DE/DX =   -0.0001              !
 ! A15   A(1,6,7)              120.7697         -DE/DX =    0.0001              !
 ! A16   A(5,6,7)              118.9528         -DE/DX =    0.0                 !
 ! D1    D(6,1,2,3)              0.0            -DE/DX =    0.0                 !
 ! D2    D(8,1,2,3)            180.0            -DE/DX =    0.0                 !
 ! D3    D(2,1,6,5)              0.0            -DE/DX =    0.0                 !
 ! D4    D(2,1,6,7)            180.0            -DE/DX =    0.0                 !
 ! D5    D(8,1,6,5)            180.0            -DE/DX =    0.0                 !
 ! D6    D(8,1,6,7)              0.0            -DE/DX =    0.0                 !
 ! D7    D(1,2,3,4)              0.0            -DE/DX =    0.0                 !
 ! D8    D(1,2,3,9)            180.0            -DE/DX =    0.0                 !
 ! D9    D(2,3,4,5)              0.0            -DE/DX =    0.0                 !
 ! D10   D(2,3,4,10)           180.0            -DE/DX =    0.0                 !
 ! D11   D(9,3,4,5)            180.0            -DE/DX =    0.0                 !
 ! D12   D(9,3,4,10)             0.0            -DE/DX =    0.0                 !
 ! D13   D(3,4,5,6)              0.0            -DE/DX =    0.0                 !
 ! D14   D(3,4,5,11)           180.0            -DE/DX =    0.0                 !
 ! D15   D(10,4,5,6)           180.0            -DE/DX =    0.0                 !
 ! D16   D(10,4,5,11)            0.0            -DE/DX =    0.0                 !
 ! D17   D(4,5,6,1)              0.0            -DE/DX =    0.0                 !
 ! D18   D(4,5,6,7)            180.0            -DE/DX =    0.0                 !
 ! D19   D(11,5,6,1)           180.0            -DE/DX =    0.0                 !
 ! D20   D(11,5,6,7)             0.0            -DE/DX =    0.0                 !
 --------------------------------------------------------------------------------
 GradGradGradGradGradGradGradGradGradGradGradGradGradGradGradGradGradGrad


 ----------------------------------------------------------------------

 Electric dipole moment (input orientation):
 (Debye = 10**-18 statcoulomb cm , SI units = C m)
                  (au)            (Debye)         (10**-30 SI)
   Tot        0.405188D+00      0.102988D+01      0.343533D+01
   x          0.405181D+00      0.102987D+01      0.343526D+01
   y          0.242944D-02      0.617503D-02      0.205977D-01
   z          0.000000D+00      0.000000D+00      0.000000D+00

 Dipole polarizability, Alpha (input orientation).
 (esu units = cm**3 , SI units = C**2 m**2 J**-1)
 Alpha(0;0):
               (au)            (10**-24 esu)      (10**-40 SI)
   iso        0.101987D+03      0.151129D+02      0.168154D+02
   aniso      0.789039D+02      0.116924D+02      0.130095D+02
   xx         0.143999D+03      0.213384D+02      0.237422D+02
   yx        -0.103059D+02     -0.152717D+01     -0.169921D+01
   yy         0.106385D+03      0.157646D+02      0.175404D+02
   zx         0.000000D+00      0.000000D+00      0.000000D+00
   zy         0.000000D+00      0.000000D+00      0.000000D+00
   zz         0.555781D+02      0.823582D+01      0.916359D+01

 ----------------------------------------------------------------------

 Dipole orientation:
     6         -0.00210552          0.35115665         -5.97559515
     6         -0.00939058          1.56615371         -3.69000431
     6         -0.00274241          0.45737766         -1.35528021
     6          0.01307075         -2.17992964         -1.35118671
     6          0.02128924         -3.55060364         -3.58890791
     6          0.01373808         -2.29122603         -5.89840202
    17          0.02425738         -4.04562691         -8.65836861
    17         -0.01221672          2.03749566         -8.77121524
     1         -0.00914790          1.52567946          0.38887410
    17          0.02271503         -3.78839557          1.51118113
     1          0.03353885         -5.59358479         -3.55073823

 Electric dipole moment (dipole orientation):
 (Debye = 10**-18 statcoulomb cm , SI units = C m)
                  (au)            (Debye)         (10**-30 SI)
   Tot        0.405188D+00      0.102988D+01      0.343533D+01
   x          0.000000D+00      0.000000D+00      0.000000D+00
   y          0.000000D+00      0.000000D+00      0.000000D+00
   z          0.405188D+00      0.102988D+01      0.343533D+01

 Dipole polarizability, Alpha (dipole orientation).
 (esu units = cm**3 , SI units = C**2 m**2 J**-1)
 Alpha(0;0):
               (au)            (10**-24 esu)      (10**-40 SI)
   iso        0.101987D+03      0.151129D+02      0.168154D+02
   aniso      0.789039D+02      0.116924D+02      0.130095D+02
   xx         0.555799D+02      0.823609D+01      0.916389D+01
   yx        -0.305371D+00     -0.452513D-01     -0.503489D-01
   yy         0.106508D+03      0.157828D+02      0.175607D+02
   zx         0.631400D-01      0.935638D-02      0.104104D-01
   zy        -0.105305D+02     -0.156045D+01     -0.173624D+01
   zz         0.143874D+03      0.213199D+02      0.237216D+02

 ----------------------------------------------------------------------
 1\1\GINC-SH02-01N38\Freq\UM062X\6-311++G(d,p)\C6H2Cl3(2)\JLAPIER\10-De
 c-2025\0\\#N Geom=AllCheck Guess=TCheck SCRF=Check GenChk UM062X/6-311
 ++G(d,p) Freq\\Neutral Radical (removed 3) 12_5\\0,2\C,-3.1632061259,0
 .1668643515,0.\C,-1.9576003684,0.817064975,0.\C,-0.7186217304,0.237733
 7135,0.\C,-0.7080876222,-1.1578562176,0.\C,-1.8878683586,-1.8902856432
 ,0.\C,-3.1139739459,-1.2311794198,0.\Cl,-4.5688925431,-2.1683253806,0.
 \Cl,-4.6479085981,1.0503664072,0.\H,0.2009387549,0.8085886479,0.\Cl,0.
 8116885193,-1.9999378308,0.\H,-1.8611879816,-2.971263603,0.\\Version=E
 S64L-G16RevB.01\State=2-A'\HF=-1610.3067457\S2=0.762837\S2-1=0.\S2A=0.
 750077\RMSD=5.404e-09\RMSF=1.336e-04\ZeroPoint=0.0595414\Thermal=0.067
 3465\Dipole=0.4051805,0.0024294,0.\DipoleDeriv=0.6305519,-0.6429764,0.
 ,-0.5274896,0.1587005,0.,0.,0.,0.0031126,-0.0160907,0.1176084,0.,0.001
 275,-0.1069507,0.,0.,0.,-0.0327814,-0.2121142,0.0971384,0.,0.1654139,-
 0.184754,0.,0.,0.,-0.0853243,1.0513075,-0.4458098,0.,-0.4611282,0.4239
 39,0.,0.,0.,0.0003792,-0.5254716,-0.0272537,0.,0.0121451,-0.1052544,0.
 ,0.,0.,-0.1151849,0.7565868,0.5770859,0.,0.5003564,0.4050176,0.,0.,0.,
 0.0228138,-0.5476644,-0.3165659,0.,-0.3634111,-0.2684525,0.,0.,0.,-0.0
 316096,-0.5489841,0.3420442,0.,0.3235767,-0.2264657,0.,0.,0.,-0.017629
 7,0.0489488,-0.0156607,0.,-0.0088982,0.1054808,0.,0.,0.,0.1622106,-0.7
 13984,0.3061622,0.,0.3541501,-0.2557129,0.,0.,0.,-0.0562094,0.076914,0
 .0082273,0.,0.00401,0.0544523,0.,0.,0.,0.1502232\Polar=143.9989824,-10
 .3058572,106.3845111,0.,0.,55.5780888\Quadrupole=-0.3310281,1.6720495,
 -1.3410214,2.0546032,0.,0.\PG=CS [SG(C6H2Cl3)]\NImag=0\\0.59543721,0.0
 3603666,0.56285285,0.,0.,0.11571451,-0.29139881,-0.09727991,0.,0.69909
 958,-0.12517187,-0.14867477,0.,-0.00176310,0.33570687,0.,0.,-0.0569564
 7,0.,0.,0.07580348,-0.05668122,-0.02657380,0.,-0.32953842,0.11969779,0
 .,0.75643226,0.01917661,0.06957570,0.,0.07873503,-0.13794633,0.,0.0482
 6409,0.62456244,0.,0.,0.00828251,0.,0.,-0.05112732,0.,0.,0.12054365,-0
 .01977906,-0.03918746,0.,0.02972551,0.02919590,0.,-0.10741627,0.026832
 21,0.,0.55927008,-0.03953386,-0.06789799,0.,0.10801591,-0.02411610,0.,
 -0.05951425,-0.31382966,0.,0.05469925,0.61128383,0.,0.,-0.00552093,0.,
 0.,0.01525326,0.,0.,-0.06430137,0.,0.,0.12242526,0.03812999,0.08682978
 ,0.,-0.08273976,-0.00347493,0.,0.04156427,-0.07855156,0.,-0.26167899,-
 0.06536406,0.,0.66687362,0.02317497,-0.02041226,0.,-0.00379576,-0.0062
 4770,0.,-0.02170005,-0.02831509,0.,-0.14158377,-0.18837866,0.,0.003310
 99,0.76789781,0.,0.,0.01059458,0.,0.,-0.00509461,0.,0.,0.00933915,0.,0
 .,-0.06349140,0.,0.,0.12657110,-0.09706019,-0.03258311,0.,0.03711800,-
 0.02260088,0.,-0.01950435,0.03955288,0.,-0.06619634,-0.03944809,0.,-0.
 26924740,0.13427625,0.,0.57006377,0.05341839,-0.30045455,0.,-0.0990480
 9,-0.02899157,0.,0.03778020,-0.06060453,0.,0.03252580,0.07654004,0.,0.
 05672635,-0.17257235,0.,-0.04592989,0.59701784,0.,0.,-0.06676959,0.,0.
 ,0.01509198,0.,0.,-0.00270828,0.,0.,0.00624505,0.,0.,-0.06198351,0.,0.
 ,0.12266757,-0.01558535,-0.00869647,0.,0.00070605,-0.00223443,0.,-0.00
 147639,-0.00178708,0.,0.00183250,0.00503977,0.,-0.04093564,-0.02438720
 ,0.,-0.14243023,-0.06732888,0.,0.19594468,-0.03374755,-0.02115727,0.,0
 .00267555,-0.00563841,0.,-0.00116787,0.00122816,0.,0.00200205,-0.00046
 143,0.,-0.00038888,0.00478081,0.,-0.06461129,-0.08030101,0.,0.09722271
 ,0.10542772,0.,0.,0.00455661,0.,0.,0.00366093,0.,0.,-0.00087344,0.,0.,
 0.00465813,0.,0.,0.00465330,0.,0.,-0.02372368,0.,0.,0.01149393,-0.1474
 6368,0.07879286,0.,-0.04210992,0.01396514,0.,-0.00039874,-0.00301812,0
 .,0.00107519,0.00090866,0.,0.00103539,0.00050099,0.,-0.01553228,0.0077
 3983,0.,0.00319753,-0.00263131,0.,0.20290384,0.06080915,-0.07650603,0.
 ,0.00426361,0.00845381,0.,-0.00237384,-0.00152960,0.,0.00008430,0.0002
 5359,0.,-0.00330500,-0.00384540,0.,0.03315099,-0.01804750,0.,0.0031283
 2,-0.00512376,0.,-0.09811548,0.09679090,0.,0.,-0.02088430,0.,0.,0.0015
 7811,0.,0.,0.00328330,0.,0.,0.00031800,0.,0.,0.00332590,0.,0.,0.004768
 36,0.,0.,-0.00135022,0.,0.,0.00937195,-0.00254524,0.00095627,0.,-0.019
 71267,-0.01040696,0.,-0.26329013,-0.13689594,0.,0.00374581,0.00305040,
 0.,0.00132049,0.00101933,0.,-0.00015970,0.00106671,0.,0.00010998,-0.00
 004675,0.,-0.00046692,-0.00012803,0.,0.28006864,0.00378568,-0.00050663
 ,0.,0.01052687,0.01164257,0.,-0.12927480,-0.13501509,0.,-0.02659168,-0
 .01158504,0.,0.00118744,-0.00516370,0.,0.00086160,-0.00105406,0.,-0.00
 006901,0.00011579,0.,0.00070750,0.00017594,0.,0.14075971,0.14058133,0.
 ,0.,0.00595953,0.,0.,-0.00140124,0.,0.,-0.03311992,0.,0.,0.00471311,0.
 ,0.,0.00528738,0.,0.,-0.00051789,0.,0.,-0.00030141,0.,0.,-0.00018580,0
 .,0.,0.02198899,0.00059768,0.00018185,0.,0.00047693,0.00264080,0.,-0.0
 1546762,0.01041095,0.,-0.14473809,0.05819543,0.,-0.04009821,0.02202520
 ,0.,0.00124947,-0.00415205,0.,-0.00171225,-0.00017804,0.,-0.00165175,0
 .00108952,0.,0.00061751,-0.00065395,0.,0.20023856,0.00036708,0.0027367
 6,0.,-0.00218941,-0.00516353,0.,0.03717808,-0.01830816,0.,0.05895380,-
 0.07122839,0.,-0.00438524,0.00573741,0.,-0.00068282,-0.00206034,0.,0.0
 0000495,0.00037535,0.,0.00105479,-0.00048990,0.,0.00051369,0.00115769,
 0.,-0.09024650,0.08624642,0.,0.,-0.00050456,0.,0.,0.00404424,0.,0.,0.0
 0536168,0.,0.,-0.02289381,0.,0.,0.00454039,0.,0.,0.00445525,0.,0.,0.00
 006158,0.,0.,-0.00034519,0.,0.,-0.00264505,0.,0.,0.01068831,-0.0036513
 3,0.00152333,0.,-0.00162648,0.00015255,0.,-0.00422340,-0.00271907,0.,0
 .00415965,-0.02604917,0.,-0.05422375,0.00715905,0.,0.00169925,0.027201
 62,0.,0.00034912,0.00087137,0.,-0.00058866,0.00139645,0.,0.00031224,-0
 .00123937,0.,0.00048776,-0.00056843,0.,0.05730559,0.00168474,0.0004441
 8,0.,-0.00014070,0.00097516,0.,-0.00231556,0.00018216,0.,0.00306959,-0
 .01058020,0.,0.00741510,-0.35348088,0.,-0.00198564,-0.00947198,0.,-0.0
 0089269,0.00075405,0.,0.00009513,-0.00013205,0.,0.00011158,-0.00034880
 ,0.,0.00068680,0.00099670,0.,-0.00772834,0.37066166,0.,0.,0.00552811,0
 .,0.,-0.00085236,0.,0.,0.00532005,0.,0.,0.00259470,0.,0.,-0.03374230,0
 .,0.,0.00247475,0.,0.,-0.00283574,0.,0.,0.00011986,0.,0.,0.00022229,0.
 ,0.,-0.00276284,0.,0.,0.02393348\\0.00003566,0.00013488,0.,0.00005957,
 -0.00000715,0.,-0.00024554,-0.00017035,0.,0.00038696,-0.00004063,0.,-0
 .00015816,0.00012226,0.,0.00040742,0.00005687,0.,-0.00025938,-0.000157
 78,0.,-0.00008328,-0.00003296,0.,-0.00001175,0.00000726,0.,-0.00010415
 ,0.00005659,0.,-0.00002733,0.00003101,0.\\\@


 You can't act like a skunk without someone's getting wind of it.
 -- Lorene Workman
 Job cpu time:       0 days  0 hours 46 minutes 51.4 seconds.
 Elapsed time:       0 days  0 hours 11 minutes 46.5 seconds.
 File lengths (MBytes):  RWF=    172 Int=      0 D2E=      0 Chk=     34 Scr=      1
 Normal termination of Gaussian 16 at Wed Dec 10 11:38:15 2025.
