 Entering Gaussian System, Link 0=g16
 Initial command:
 /share/software/user/restricted/gaussian/g16.B01/l1.exe "/home/users/jlapier/Chloroaromatics/Gau-5426.inp" -scrdir="/home/users/jlapier/Chloroaromatics/"
 Entering Link 1 = /share/software/user/restricted/gaussian/g16.B01/l1.exe PID=      5427.
  
 Copyright (c) 1988-2017, Gaussian, Inc.  All Rights Reserved.
  
 This is part of the Gaussian(R) 16 program.  It is based on
 the Gaussian(R) 09 system (copyright 2009, Gaussian, Inc.),
 the Gaussian(R) 03 system (copyright 2003, Gaussian, Inc.),
 the Gaussian(R) 98 system (copyright 1998, Gaussian, Inc.),
 the Gaussian(R) 94 system (copyright 1995, Gaussian, Inc.),
 the Gaussian 92(TM) system (copyright 1992, Gaussian, Inc.),
 the Gaussian 90(TM) system (copyright 1990, Gaussian, Inc.),
 the Gaussian 88(TM) system (copyright 1988, Gaussian, Inc.),
 the Gaussian 86(TM) system (copyright 1986, Carnegie Mellon
 University), and the Gaussian 82(TM) system (copyright 1983,
 Carnegie Mellon University). Gaussian is a federally registered
 trademark of Gaussian, Inc.
  
 This software contains proprietary and confidential information,
 including trade secrets, belonging to Gaussian, Inc.
  
 This software is provided under written license and may be
 used, copied, transmitted, or stored only in accord with that
 written license.
  
 The following legend is applicable only to US Government
 contracts under FAR:
  
                    RESTRICTED RIGHTS LEGEND
  
 Use, reproduction and disclosure by the US Government is
 subject to restrictions as set forth in subparagraphs (a)
 and (c) of the Commercial Computer Software - Restricted
 Rights clause in FAR 52.227-19.
  
 Gaussian, Inc.
 340 Quinnipiac St., Bldg. 40, Wallingford CT 06492
  
  
 ---------------------------------------------------------------
 Warning -- This program may not be used in any manner that
 competes with the business of Gaussian, Inc. or will provide
 assistance to any competitor of Gaussian, Inc.  The licensee
 of this program is prohibited from giving any competitor of
 Gaussian, Inc. access to this program.  By using this program,
 the user acknowledges that Gaussian, Inc. is engaged in the
 business of creating and licensing software in the field of
 computational chemistry and represents and warrants to the
 licensee that it is not a competitor of Gaussian, Inc. and that
 it will not use this program in any manner prohibited above.
 ---------------------------------------------------------------
  

 Cite this work as:
 Gaussian 16, Revision B.01,
 M. J. Frisch, G. W. Trucks, H. B. Schlegel, G. E. Scuseria, 
 M. A. Robb, J. R. Cheeseman, G. Scalmani, V. Barone, 
 G. A. Petersson, H. Nakatsuji, X. Li, M. Caricato, A. V. Marenich, 
 J. Bloino, B. G. Janesko, R. Gomperts, B. Mennucci, H. P. Hratchian, 
 J. V. Ortiz, A. F. Izmaylov, J. L. Sonnenberg, D. Williams-Young, 
 F. Ding, F. Lipparini, F. Egidi, J. Goings, B. Peng, A. Petrone, 
 T. Henderson, D. Ranasinghe, V. G. Zakrzewski, J. Gao, N. Rega, 
 G. Zheng, W. Liang, M. Hada, M. Ehara, K. Toyota, R. Fukuda, 
 J. Hasegawa, M. Ishida, T. Nakajima, Y. Honda, O. Kitao, H. Nakai, 
 T. Vreven, K. Throssell, J. A. Montgomery, Jr., J. E. Peralta, 
 F. Ogliaro, M. J. Bearpark, J. J. Heyd, E. N. Brothers, K. N. Kudin, 
 V. N. Staroverov, T. A. Keith, R. Kobayashi, J. Normand, 
 K. Raghavachari, A. P. Rendell, J. C. Burant, S. S. Iyengar, 
 J. Tomasi, M. Cossi, J. M. Millam, M. Klene, C. Adamo, R. Cammi, 
 J. W. Ochterski, R. L. Martin, K. Morokuma, O. Farkas, 
 J. B. Foresman, and D. J. Fox, Gaussian, Inc., Wallingford CT, 2016.
 
 ******************************************
 Gaussian 16:  ES64L-G16RevB.01 20-Dec-2017
                 9-Dec-2025 
 ******************************************
 %mem=8GB
 %nprocshare=4
 Will use up to    4 processors via shared memory.
 %oldchk=geometry_chks/123_ClBzNeutralRadical.chk
 %chk=frequency_chks/123_ClBzNeutralRadical_Freq.chk
 Copying data from "geometry_chks/123_ClBzNeutralRadical.chk" to current chk file "frequency_chks/123_ClBzNeutralRadical_Freq.chk"
 IOpt=  2 FromEx=T IUOpen= 4 IOptOp= 5 NList=   0 IFRang= 0 IUIn= 4 IUOut= 2.
 -------------------------------------------------------
 # opt freq 6-311++g(d,p) guess=read geom=allcheck m062x
 -------------------------------------------------------
 1/18=20,19=15,26=3,29=7,38=1/1,3;
 2/9=110,12=2,40=1/2;
 3/5=4,6=6,7=1111,11=2,14=-4,25=1,30=1,71=1,74=-55,116=-2/1,2,3;
 4/5=1/1;
 5/5=2,38=6/2;
 6/7=2,8=2,9=2,10=2,28=1/1;
 7//1,2,3,16;
 1/18=20,19=15,26=3/3(2);
 2/9=110/2;
 99//99;
 2/9=110/2;
 3/5=4,6=6,7=1111,11=2,14=-2,25=1,30=1,71=1,74=-55/1,2,3;
 4/5=5,16=3,69=1/1;
 5/5=2,38=5/2;
 7//1,2,3,16;
 1/18=20,19=15,26=3/3(-5);
 2/9=110/2;
 6/7=2,8=2,9=2,10=2,19=2,28=1/1;
 99/9=1/99;
 Structure from the checkpoint file:  "frequency_chks/123_ClBzNeutralRadical_Freq.chk"
 --------------------------------
 Neutral Radical (removed 5) 123_
 --------------------------------
 Charge =  0 Multiplicity = 2
 Redundant internal coordinates found in file.  (old form).
 C,0,-3.1679356841,0.1770649112,0.
 C,0,-1.9658946287,0.9241689126,0.
 C,0,-0.7181622188,0.2599943087,0.
 C,0,-0.7964217816,-1.1066172587,0.
 C,0,-1.8978491457,-1.9193998916,0.
 C,0,-3.1361937098,-1.237876901,0.
 Cl,0,-4.5633818566,-2.1414193844,0.
 Cl,0,-4.6544070477,0.9816808,0.
 Cl,0,-1.9897623761,2.6131583168,0.
 H,0,0.2337347528,0.8060784963,0.
 H,0,-1.8345663037,-3.01515231,0.
 Recover connectivity data from disk.

 GradGradGradGradGradGradGradGradGradGradGradGradGradGradGradGradGradGrad
 Berny optimization.
 Initialization pass.
                           ----------------------------
                           !    Initial Parameters    !
                           ! (Angstroms and Degrees)  !
 --------------------------                            --------------------------
 ! Name  Definition              Value          Derivative Info.                !
 --------------------------------------------------------------------------------
 ! R1    R(1,2)                  1.4153         estimate D2E/DX2                !
 ! R2    R(1,6)                  1.4153         estimate D2E/DX2                !
 ! R3    R(1,8)                  1.6903         estimate D2E/DX2                !
 ! R4    R(2,3)                  1.4135         estimate D2E/DX2                !
 ! R5    R(2,9)                  1.6892         estimate D2E/DX2                !
 ! R6    R(3,4)                  1.3689         estimate D2E/DX2                !
 ! R7    R(3,10)                 1.0974         estimate D2E/DX2                !
 ! R8    R(4,5)                  1.3689         estimate D2E/DX2                !
 ! R9    R(5,6)                  1.4135         estimate D2E/DX2                !
 ! R10   R(5,11)                 1.0976         estimate D2E/DX2                !
 ! R11   R(6,7)                  1.6892         estimate D2E/DX2                !
 ! A1    A(2,1,6)              120.577          estimate D2E/DX2                !
 ! A2    A(2,1,8)              119.7115         estimate D2E/DX2                !
 ! A3    A(6,1,8)              119.7115         estimate D2E/DX2                !
 ! A4    A(1,2,3)              120.1112         estimate D2E/DX2                !
 ! A5    A(1,2,9)              121.0526         estimate D2E/DX2                !
 ! A6    A(3,2,9)              118.8362         estimate D2E/DX2                !
 ! A7    A(2,3,4)              114.7491         estimate D2E/DX2                !
 ! A8    A(2,3,10)             122.1314         estimate D2E/DX2                !
 ! A9    A(4,3,10)             123.1195         estimate D2E/DX2                !
 ! A10   A(3,4,5)              129.7024         estimate D2E/DX2                !
 ! A11   A(4,5,6)              114.7489         estimate D2E/DX2                !
 ! A12   A(4,5,11)             123.1196         estimate D2E/DX2                !
 ! A13   A(6,5,11)             122.1315         estimate D2E/DX2                !
 ! A14   A(1,6,5)              120.1113         estimate D2E/DX2                !
 ! A15   A(1,6,7)              121.0525         estimate D2E/DX2                !
 ! A16   A(5,6,7)              118.8362         estimate D2E/DX2                !
 ! D1    D(6,1,2,3)              0.0            estimate D2E/DX2                !
 ! D2    D(6,1,2,9)            180.0            estimate D2E/DX2                !
 ! D3    D(8,1,2,3)            180.0            estimate D2E/DX2                !
 ! D4    D(8,1,2,9)              0.0            estimate D2E/DX2                !
 ! D5    D(2,1,6,5)              0.0            estimate D2E/DX2                !
 ! D6    D(2,1,6,7)            180.0            estimate D2E/DX2                !
 ! D7    D(8,1,6,5)            180.0            estimate D2E/DX2                !
 ! D8    D(8,1,6,7)              0.0            estimate D2E/DX2                !
 ! D9    D(1,2,3,4)              0.0            estimate D2E/DX2                !
 ! D10   D(1,2,3,10)           180.0            estimate D2E/DX2                !
 ! D11   D(9,2,3,4)            180.0            estimate D2E/DX2                !
 ! D12   D(9,2,3,10)             0.0            estimate D2E/DX2                !
 ! D13   D(2,3,4,5)              0.0            estimate D2E/DX2                !
 ! D14   D(10,3,4,5)           180.0            estimate D2E/DX2                !
 ! D15   D(3,4,5,6)              0.0            estimate D2E/DX2                !
 ! D16   D(3,4,5,11)           180.0            estimate D2E/DX2                !
 ! D17   D(4,5,6,1)              0.0            estimate D2E/DX2                !
 ! D18   D(4,5,6,7)            180.0            estimate D2E/DX2                !
 ! D19   D(11,5,6,1)           180.0            estimate D2E/DX2                !
 ! D20   D(11,5,6,7)             0.0            estimate D2E/DX2                !
 --------------------------------------------------------------------------------
 Trust Radius=3.00D-01 FncErr=1.00D-07 GrdErr=1.00D-06 EigMax=2.50D+02 EigMin=1.00D-04
 Number of steps in this run=     57 maximum allowed number of steps=    100.
 GradGradGradGradGradGradGradGradGradGradGradGradGradGradGradGradGradGrad

                          Input orientation:                          
 ---------------------------------------------------------------------
 Center     Atomic      Atomic             Coordinates (Angstroms)
 Number     Number       Type             X           Y           Z
 ---------------------------------------------------------------------
      1          6           0       -3.167936    0.177065   -0.000000
      2          6           0       -1.965895    0.924169   -0.000000
      3          6           0       -0.718162    0.259994   -0.000000
      4          6           0       -0.796422   -1.106617   -0.000000
      5          6           0       -1.897849   -1.919400   -0.000000
      6          6           0       -3.136194   -1.237877   -0.000000
      7         17           0       -4.563382   -2.141419   -0.000000
      8         17           0       -4.654407    0.981681   -0.000000
      9         17           0       -1.989762    2.613158   -0.000000
     10          1           0        0.233735    0.806078   -0.000000
     11          1           0       -1.834566   -3.015152   -0.000000
 ---------------------------------------------------------------------
                    Distance matrix (angstroms):
                    1          2          3          4          5
     1  C    0.000000
     2  C    1.415298   0.000000
     3  C    2.451177   1.413494   0.000000
     4  C    2.696649   2.343450   1.368851   0.000000
     5  C    2.451180   2.844383   2.478189   1.368853   0.000000
     6  C    1.415298   2.458463   2.844379   2.343451   1.413496
     7  Cl   2.706038   4.018056   4.533487   3.906508   2.674763
     8  Cl   1.690267   2.689127   4.001856   4.386917   4.001860
     9  Cl   2.706038   1.689158   2.674761   3.906506   4.533490
    10  H    3.459338   2.202797   1.097413   2.172470   3.460041
    11  H    3.459498   3.941510   3.460194   2.172614   1.097578
                    6          7          8          9         10
     6  C    0.000000
     7  Cl   1.689158   0.000000
     8  Cl   2.689128   3.124426   0.000000
     9  Cl   4.018056   5.406434   3.124428   0.000000
    10  H    3.941341   5.630282   4.891295   2.865218   0.000000
    11  H    2.202939   2.865282   4.891439   5.630450   4.345075
                   11
    11  H    0.000000
 Stoichiometry    C6H2Cl3(2)
 Framework group  CS[SG(C6H2Cl3)]
 Deg. of freedom    19
 Full point group                 CS      NOp   2
 Largest Abelian subgroup         CS      NOp   2
 Largest concise Abelian subgroup C1      NOp   1
                         Standard orientation:                         
 ---------------------------------------------------------------------
 Center     Atomic      Atomic             Coordinates (Angstroms)
 Number     Number       Type             X           Y           Z
 ---------------------------------------------------------------------
      1          6           0        0.000002    0.251981    0.000000
      2          6           0        1.229233   -0.449486    0.000000
      3          6           0        1.239094   -1.862946    0.000000
      4          6           0        0.000002   -2.444668    0.000000
      5          6           0       -1.239095   -1.862948    0.000000
      6          6           0       -1.229230   -0.449486    0.000000
      7         17           0       -2.703215    0.375514    0.000000
      8         17           0        0.000002    1.942249    0.000000
      9         17           0        2.703219    0.375511    0.000000
     10          1           0        2.172467   -2.440121    0.000000
     11          1           0       -2.172607   -2.440210    0.000000
 ---------------------------------------------------------------------
 Rotational constants (GHZ):           1.6090314           0.8512536           0.5567216
 Standard basis: 6-311++G(d,p) (5D, 7F)
 There are   183 symmetry adapted cartesian basis functions of A'  symmetry.
 There are    62 symmetry adapted cartesian basis functions of A"  symmetry.
 There are   174 symmetry adapted basis functions of A'  symmetry.
 There are    62 symmetry adapted basis functions of A"  symmetry.
   236 basis functions,   393 primitive gaussians,   245 cartesian basis functions
    45 alpha electrons       44 beta electrons
       nuclear repulsion energy       639.5689933196 Hartrees.
 NAtoms=   11 NActive=   11 NUniq=   11 SFac= 1.00D+00 NAtFMM=   60 NAOKFM=F Big=F
 Integral buffers will be    131072 words long.
 Raffenetti 2 integral format.
 Two-electron integral symmetry is turned on.
 One-electron integrals computed using PRISM.
 NBasis=   236 RedAO= T EigKep=  1.23D-06  NBF=   174    62
 NBsUse=   236 1.00D-06 EigRej= -1.00D+00 NBFU=   174    62
 Initial guess from the checkpoint file:  "frequency_chks/123_ClBzNeutralRadical_Freq.chk"
 B after Tr=     0.000000   -0.000000    0.000000
         Rot=    1.000000   -0.000000   -0.000000   -0.000000 Ang=   0.00 deg.
 Initial guess orbital symmetries:
 Alpha Orbitals:
       Occupied  (A') (A') (A') (A') (A') (A') (A') (A') (A') (A')
                 (A') (A') (A") (A') (A") (A') (A") (A') (A") (A')
                 (A') (A') (A") (A") (A") (A") (A') (A') (A') (A")
                 (A') (A') (A') (A') (A') (A') (A') (A') (A') (A')
                 (A') (A') (A') (A') (A')
       Virtual   (A') (A') (A') (A') (A') (A') (A') (A') (A') (A')
                 (A') (A') (A') (A') (A') (A') (A') (A') (A') (A')
                 (A') (A') (A') (A') (A') (A') (A') (A') (A') (A')
                 (A') (A') (A') (A') (A') (A') (A') (A') (A') (A')
                 (A') (A') (A') (A') (A') (A') (A') (A') (A') (A')
                 (A') (A') (A') (A') (A') (A') (A') (A') (A') (A')
                 (A') (A') (A') (A') (A') (A') (A') (A') (A') (A')
                 (A') (A') (A') (A') (A') (A') (A') (A') (A') (A')
                 (A') (A') (A') (A') (A') (A') (A') (A') (A') (A')
                 (A') (A') (A') (A') (A') (A') (A') (A') (A') (A')
                 (A') (A') (A') (A') (A') (A') (A') (A') (A') (A')
                 (A') (A') (A') (A') (A') (A') (A') (A') (A') (A')
                 (A') (A') (A') (A') (A') (A') (A') (A') (A') (A')
                 (A') (A') (A') (A') (A') (A') (A') (A') (A") (A")
                 (A") (A") (A") (A") (A") (A") (A") (A") (A") (A")
                 (A") (A") (A") (A") (A") (A") (A") (A") (A") (A")
                 (A") (A") (A") (A") (A") (A") (A") (A") (A") (A")
                 (A") (A") (A") (A") (A") (A") (A") (A") (A") (A")
                 (A") (A") (A") (A") (A") (A") (A") (A") (A") (A")
                 (A")
 Beta  Orbitals:
       Occupied  (A') (A') (A') (A') (A') (A') (A') (A') (A') (A')
                 (A') (A') (A") (A') (A') (A") (A") (A') (A") (A')
                 (A') (A") (A") (A") (A') (A") (A') (A') (A') (A")
                 (A') (A') (A') (A') (A') (A') (A') (A') (A') (A')
                 (A') (A') (A') (A')
       Virtual   (A') (A') (A') (A') (A') (A') (A') (A') (A') (A')
                 (A') (A') (A') (A') (A') (A') (A') (A') (A') (A')
                 (A') (A') (A') (A') (A') (A') (A') (A') (A') (A')
                 (A') (A') (A') (A') (A') (A') (A') (A') (A') (A')
                 (A') (A') (A') (A') (A') (A') (A') (A') (A') (A')
                 (A') (A') (A') (A') (A') (A') (A') (A') (A') (A')
                 (A') (A') (A') (A') (A') (A') (A') (A') (A') (A')
                 (A') (A') (A') (A') (A') (A') (A') (A') (A') (A')
                 (A') (A') (A') (A') (A') (A') (A') (A') (A') (A')
                 (A') (A') (A') (A') (A') (A') (A') (A') (A') (A')
                 (A') (A') (A') (A') (A') (A') (A') (A') (A') (A')
                 (A') (A') (A') (A') (A') (A') (A') (A') (A') (A')
                 (A') (A') (A') (A') (A') (A') (A') (A') (A') (A')
                 (A') (A') (A') (A') (A') (A') (A') (A') (A') (A")
                 (A") (A") (A") (A") (A") (A") (A") (A") (A") (A")
                 (A") (A") (A") (A") (A") (A") (A") (A") (A") (A")
                 (A") (A") (A") (A") (A") (A") (A") (A") (A") (A")
                 (A") (A") (A") (A") (A") (A") (A") (A") (A") (A")
                 (A") (A") (A") (A") (A") (A") (A") (A") (A") (A")
                 (A") (A")
 Initial guess <Sx>= 0.0000 <Sy>= 0.0000 <Sz>= 0.5000 <S**2>= 0.7500 S= 0.5000
 Keep R1 and R2 ints in memory in symmetry-blocked form, NReq=617299900.
 Requested convergence on RMS density matrix=1.00D-08 within 128 cycles.
 Requested convergence on MAX density matrix=1.00D-06.
 Requested convergence on             energy=1.00D-06.
 No special actions if energy rises.
 EnCoef did     5 forward-backward iterations
 EnCoef did     3 forward-backward iterations
 SCF Done:  E(UM062X) =  -1610.30052112     A.U. after   33 cycles
            NFock= 33  Conv=0.74D-08     -V/T= 2.0023
 <Sx>= 0.0000 <Sy>= 0.0000 <Sz>= 0.5000 <S**2>= 0.7628 S= 0.5064
 <L.S>=  0.00000000000    
 Annihilation of the first spin contaminant:
 S**2 before annihilation     0.7628,   after     0.7501

 **********************************************************************

            Population analysis using the SCF Density.

 **********************************************************************

 Orbital symmetries:
 Alpha Orbitals:
       Occupied  (A') (A') (A') (A') (A') (A') (A') (A') (A') (A')
                 (A') (A') (A') (A') (A') (A") (A") (A') (A') (A")
                 (A') (A') (A') (A') (A') (A') (A') (A') (A') (A')
                 (A') (A') (A') (A") (A') (A') (A") (A") (A') (A")
                 (A') (A') (A') (A") (A")
       Virtual   (A") (A") (A') (A') (A') (A') (A') (A') (A") (A')
                 (A") (A') (A') (A") (A') (A") (A') (A') (A") (A')
                 (A") (A') (A') (A') (A') (A") (A') (A") (A") (A')
                 (A') (A') (A') (A') (A') (A") (A') (A') (A') (A')
                 (A') (A') (A') (A') (A') (A') (A') (A') (A') (A')
                 (A') (A") (A') (A') (A') (A") (A') (A") (A') (A')
                 (A') (A") (A') (A") (A') (A") (A") (A") (A') (A')
                 (A') (A') (A") (A') (A') (A') (A") (A') (A') (A")
                 (A') (A') (A') (A') (A") (A') (A") (A") (A') (A')
                 (A") (A') (A') (A') (A') (A') (A") (A') (A') (A')
                 (A") (A") (A') (A') (A') (A') (A") (A') (A") (A')
                 (A") (A') (A') (A') (A') (A") (A") (A') (A') (A')
                 (A") (A') (A') (A") (A') (A") (A') (A") (A') (A')
                 (A") (A') (A') (A") (A') (A") (A") (A') (A") (A')
                 (A') (A') (A') (A') (A') (A') (A') (A") (A') (A')
                 (A') (A') (A") (A") (A") (A") (A') (A") (A') (A')
                 (A') (A') (A') (A') (A') (A') (A') (A') (A') (A')
                 (A') (A') (A') (A') (A') (A') (A') (A') (A') (A")
                 (A") (A") (A') (A') (A') (A') (A') (A') (A') (A')
                 (A')
 Beta  Orbitals:
       Occupied  (A') (A') (A') (A') (A') (A') (A') (A') (A') (A')
                 (A') (A') (A') (A') (A') (A") (A") (A') (A') (A")
                 (A') (A') (A') (A') (A') (A') (A') (A') (A') (A')
                 (A') (A') (A') (A") (A') (A') (A") (A") (A') (A')
                 (A") (A') (A") (A")
       Virtual   (A') (A") (A') (A") (A') (A') (A') (A') (A") (A')
                 (A') (A") (A') (A") (A') (A') (A") (A') (A') (A")
                 (A') (A') (A") (A') (A') (A") (A') (A') (A') (A")
                 (A') (A") (A') (A') (A') (A') (A") (A') (A') (A')
                 (A') (A') (A') (A') (A') (A') (A') (A') (A') (A')
                 (A') (A") (A') (A') (A') (A') (A") (A') (A") (A')
                 (A') (A') (A") (A') (A') (A") (A") (A") (A') (A")
                 (A') (A') (A") (A') (A') (A') (A') (A') (A") (A')
                 (A') (A") (A') (A') (A') (A') (A") (A") (A") (A')
                 (A') (A") (A') (A') (A') (A') (A') (A") (A') (A')
                 (A') (A") (A") (A') (A') (A') (A') (A") (A') (A")
                 (A') (A") (A') (A') (A') (A') (A") (A") (A') (A')
                 (A') (A") (A') (A') (A") (A') (A') (A") (A") (A')
                 (A') (A") (A') (A') (A") (A') (A") (A") (A') (A")
                 (A') (A') (A') (A') (A') (A') (A') (A') (A") (A')
                 (A') (A') (A') (A") (A") (A") (A") (A') (A") (A')
                 (A') (A') (A') (A') (A') (A') (A') (A') (A') (A')
                 (A') (A') (A') (A') (A') (A') (A') (A') (A') (A')
                 (A") (A") (A") (A') (A') (A') (A') (A') (A') (A')
                 (A') (A')
 The electronic state is 2-A'.
 Alpha  occ. eigenvalues -- -102.69865-102.69865-102.69558 -10.64537 -10.64534
 Alpha  occ. eigenvalues --  -10.63999 -10.59920 -10.58788 -10.58782  -9.84212
 Alpha  occ. eigenvalues --   -9.84211  -9.83914  -7.56745  -7.56745  -7.56442
 Alpha  occ. eigenvalues --   -7.56050  -7.56050  -7.56015  -7.56015  -7.55734
 Alpha  occ. eigenvalues --   -7.55712  -1.06096  -1.01234  -0.98039  -0.95506
 Alpha  occ. eigenvalues --   -0.85454  -0.83783  -0.71734  -0.69691  -0.61001
 Alpha  occ. eigenvalues --   -0.59865  -0.55634  -0.53534  -0.52639  -0.50923
 Alpha  occ. eigenvalues --   -0.48236  -0.45995  -0.43284  -0.41591  -0.41158
 Alpha  occ. eigenvalues --   -0.41105  -0.38190  -0.32769  -0.31807  -0.31797
 Alpha virt. eigenvalues --   -0.02379  -0.01127  -0.00247   0.01185   0.01236
 Alpha virt. eigenvalues --    0.03799   0.04409   0.04737   0.05074   0.06383
 Alpha virt. eigenvalues --    0.07894   0.07947   0.07961   0.08097   0.08887
 Alpha virt. eigenvalues --    0.10502   0.10875   0.10898   0.11709   0.11813
 Alpha virt. eigenvalues --    0.12654   0.12817   0.13219   0.14647   0.14840
 Alpha virt. eigenvalues --    0.15082   0.16087   0.17391   0.17474   0.17527
 Alpha virt. eigenvalues --    0.17662   0.19724   0.20100   0.20177   0.20616
 Alpha virt. eigenvalues --    0.20913   0.23362   0.24014   0.24631   0.25914
 Alpha virt. eigenvalues --    0.26105   0.26734   0.27422   0.28431   0.29277
 Alpha virt. eigenvalues --    0.29762   0.30381   0.33681   0.34156   0.34494
 Alpha virt. eigenvalues --    0.44840   0.44889   0.45608   0.47247   0.47484
 Alpha virt. eigenvalues --    0.47888   0.50005   0.50837   0.51792   0.52111
 Alpha virt. eigenvalues --    0.52801   0.54078   0.56752   0.59155   0.59357
 Alpha virt. eigenvalues --    0.60540   0.62626   0.63855   0.64968   0.65437
 Alpha virt. eigenvalues --    0.66194   0.69202   0.69217   0.69272   0.73073
 Alpha virt. eigenvalues --    0.76568   0.78296   0.78997   0.82655   0.86422
 Alpha virt. eigenvalues --    0.86966   0.87559   0.88574   0.89898   0.90386
 Alpha virt. eigenvalues --    0.90468   0.90966   0.91936   0.94033   0.95593
 Alpha virt. eigenvalues --    0.96855   0.97065   0.97602   0.98231   0.99560
 Alpha virt. eigenvalues --    1.00368   1.02109   1.06670   1.07547   1.10392
 Alpha virt. eigenvalues --    1.11879   1.15402   1.17692   1.25379   1.27345
 Alpha virt. eigenvalues --    1.28174   1.31728   1.32809   1.35486   1.36057
 Alpha virt. eigenvalues --    1.36575   1.43506   1.50422   1.52551   1.56633
 Alpha virt. eigenvalues --    1.60781   1.62463   1.65250   1.73627   1.80205
 Alpha virt. eigenvalues --    1.82619   1.84149   1.85842   1.88191   1.89576
 Alpha virt. eigenvalues --    1.91955   1.92197   1.98615   2.01201   2.05477
 Alpha virt. eigenvalues --    2.12970   2.19009   2.26116   2.26605   2.28304
 Alpha virt. eigenvalues --    2.28669   2.31274   2.31514   2.33941   2.42657
 Alpha virt. eigenvalues --    2.44892   2.46380   2.49460   2.52294   2.58479
 Alpha virt. eigenvalues --    2.59242   2.62995   2.66826   2.67664   2.72518
 Alpha virt. eigenvalues --    2.73595   2.77328   2.78998   2.82209   2.90969
 Alpha virt. eigenvalues --    2.91704   2.92854   3.09336   3.13436   3.19529
 Alpha virt. eigenvalues --    3.25755   3.27193   3.39412   3.41038   3.64991
 Alpha virt. eigenvalues --    3.73810   3.76372   4.01002   4.11069   4.75563
 Alpha virt. eigenvalues --    9.92337   9.99471  10.01694  23.42914  23.86637
 Alpha virt. eigenvalues --   23.88277  23.97900  24.08949  24.22434  25.87591
 Alpha virt. eigenvalues --   25.91992  25.98838  26.19752  26.24072  26.29235
 Alpha virt. eigenvalues --   26.53131  26.76307  27.01556 216.01795 216.10051
 Alpha virt. eigenvalues --  216.12683
  Beta  occ. eigenvalues -- -102.69847-102.69847-102.69564 -10.64433 -10.64429
  Beta  occ. eigenvalues --  -10.64035 -10.58967 -10.58813 -10.58787  -9.84205
  Beta  occ. eigenvalues --   -9.84205  -9.83916  -7.56711  -7.56711  -7.56440
  Beta  occ. eigenvalues --   -7.56036  -7.56036  -7.56005  -7.56005  -7.55755
  Beta  occ. eigenvalues --   -7.55714  -1.05885  -1.01072  -0.97815  -0.94483
  Beta  occ. eigenvalues --   -0.85036  -0.82786  -0.71411  -0.68009  -0.60142
  Beta  occ. eigenvalues --   -0.59100  -0.54989  -0.53137  -0.52443  -0.50092
  Beta  occ. eigenvalues --   -0.47619  -0.45895  -0.42941  -0.41047  -0.40853
  Beta  occ. eigenvalues --   -0.40403  -0.38129  -0.31909  -0.31059
  Beta virt. eigenvalues --   -0.07315  -0.02424   0.00046   0.00071   0.01135
  Beta virt. eigenvalues --    0.01336   0.03838   0.04430   0.05133   0.05161
  Beta virt. eigenvalues --    0.06990   0.07910   0.08035   0.08112   0.08801
  Beta virt. eigenvalues --    0.08823   0.10241   0.10881   0.10910   0.11720
  Beta virt. eigenvalues --    0.11994   0.12460   0.12543   0.12858   0.14734
  Beta virt. eigenvalues --    0.15005   0.15117   0.16427   0.17372   0.17436
  Beta virt. eigenvalues --    0.17591   0.18423   0.19796   0.19894   0.20578
  Beta virt. eigenvalues --    0.20976   0.21030   0.23310   0.23463   0.24375
  Beta virt. eigenvalues --    0.26137   0.26281   0.27246   0.27556   0.28329
  Beta virt. eigenvalues --    0.29329   0.29533   0.31045   0.33928   0.34362
  Beta virt. eigenvalues --    0.35056   0.44889   0.45075   0.45575   0.46927
  Beta virt. eigenvalues --    0.47386   0.47881   0.50044   0.50821   0.51960
  Beta virt. eigenvalues --    0.52312   0.52903   0.54333   0.56948   0.57532
  Beta virt. eigenvalues --    0.59390   0.60451   0.62731   0.62846   0.63889
  Beta virt. eigenvalues --    0.65332   0.66666   0.69071   0.69227   0.69649
  Beta virt. eigenvalues --    0.74327   0.76483   0.78106   0.78398   0.83096
  Beta virt. eigenvalues --    0.86155   0.86491   0.87697   0.88663   0.90004
  Beta virt. eigenvalues --    0.90378   0.90437   0.90984   0.91922   0.93152
  Beta virt. eigenvalues --    0.95749   0.96891   0.97090   0.97719   0.98619
  Beta virt. eigenvalues --    0.99471   1.00472   1.02535   1.06615   1.07520
  Beta virt. eigenvalues --    1.10775   1.12311   1.17294   1.17716   1.25294
  Beta virt. eigenvalues --    1.27383   1.27894   1.32293   1.32829   1.35917
  Beta virt. eigenvalues --    1.36094   1.36872   1.45323   1.51054   1.53699
  Beta virt. eigenvalues --    1.56808   1.61526   1.62645   1.65390   1.74467
  Beta virt. eigenvalues --    1.80419   1.82809   1.85146   1.86396   1.88249
  Beta virt. eigenvalues --    1.90336   1.92033   1.92332   1.98832   2.01706
  Beta virt. eigenvalues --    2.05458   2.13445   2.19286   2.26362   2.26602
  Beta virt. eigenvalues --    2.28546   2.28741   2.31686   2.31891   2.33949
  Beta virt. eigenvalues --    2.42913   2.45137   2.46455   2.50423   2.52362
  Beta virt. eigenvalues --    2.58734   2.59361   2.63654   2.66916   2.67824
  Beta virt. eigenvalues --    2.72485   2.73345   2.77746   2.79467   2.82292
  Beta virt. eigenvalues --    2.91162   2.91469   2.95503   3.09447   3.13646
  Beta virt. eigenvalues --    3.19825   3.26720   3.27317   3.40188   3.41689
  Beta virt. eigenvalues --    3.65328   3.73689   3.76698   4.00934   4.11623
  Beta virt. eigenvalues --    4.75755   9.92342   9.99478  10.01694  23.43026
  Beta virt. eigenvalues --   23.86888  23.88322  23.97961  24.08934  24.23124
  Beta virt. eigenvalues --   25.87587  25.92034  25.98831  26.19791  26.24090
  Beta virt. eigenvalues --   26.29252  26.53176  26.76391  27.01610 216.01811
  Beta virt. eigenvalues --  216.10079 216.12686
          Condensed to atoms (all electrons):
               1          2          3          4          5          6
     1  C   31.837940 -10.993336   0.907418  -5.470793   0.907541 -10.993402
     2  C  -10.993336  28.472525  -6.992837   1.969009  -8.602907   3.452059
     3  C    0.907418  -6.992837  17.710589  -1.030202   4.571915  -8.603101
     4  C   -5.470793   1.969009  -1.030202   8.872649  -1.030251   1.969184
     5  C    0.907541  -8.602907   4.571915  -1.030251  17.710437  -6.992951
     6  C  -10.993402   3.452059  -8.603101   1.969184  -6.992951  28.472740
     7  Cl  -0.044674   0.570509  -0.154232   0.212664  -0.826438  -0.314020
     8  Cl  -0.107426  -1.398888   1.120664  -0.244193   1.120652  -1.398910
     9  Cl  -0.044641  -0.314074  -0.826411   0.212659  -0.154229   0.570515
    10  H   -0.074214  -0.092458   0.420380   0.101330   0.017952  -0.042241
    11  H   -0.074165  -0.042245   0.017969   0.101305   0.420330  -0.092454
               7          8          9         10         11
     1  C   -0.044674  -0.107426  -0.044641  -0.074214  -0.074165
     2  C    0.570509  -1.398888  -0.314074  -0.092458  -0.042245
     3  C   -0.154232   1.120664  -0.826411   0.420380   0.017969
     4  C    0.212664  -0.244193   0.212659   0.101330   0.101305
     5  C   -0.826438   1.120652  -0.154229   0.017952   0.420330
     6  C   -0.314020  -1.398910   0.570515  -0.042241  -0.092454
     7  Cl  17.457543  -0.310612  -0.006719  -0.002158  -0.005057
     8  Cl  -0.310612  17.938347  -0.310615   0.002694   0.002694
     9  Cl  -0.006719  -0.310615  17.457538  -0.005054  -0.002159
    10  H   -0.002158   0.002694  -0.005054   0.463949  -0.000464
    11  H   -0.005057   0.002694  -0.002159  -0.000464   0.463923
          Atomic-Atomic Spin Densities.
               1          2          3          4          5          6
     1  C    0.644159  -0.222618  -0.280337   0.360070  -0.280374  -0.222596
     2  C   -0.222618   0.509540  -0.284982   0.104817  -0.198208   0.168166
     3  C   -0.280337  -0.284982   0.787593  -0.618565   0.605914  -0.198210
     4  C    0.360070   0.104817  -0.618565   1.459185  -0.618574   0.104815
     5  C   -0.280374  -0.198208   0.605914  -0.618574   0.787604  -0.284940
     6  C   -0.222596   0.168166  -0.198210   0.104815  -0.284940   0.509474
     7  Cl  -0.044359   0.001467   0.023876  -0.028609   0.068678  -0.031305
     8  Cl   0.016911  -0.009090   0.007234  -0.008976   0.007237  -0.009089
     9  Cl  -0.044369  -0.031306   0.068690  -0.028614   0.023881   0.001464
    10  H    0.024113  -0.019020  -0.000915   0.001146  -0.008780  -0.008620
    11  H    0.024106  -0.008618  -0.008774   0.001138  -0.000909  -0.019012
               7          8          9         10         11
     1  C   -0.044359   0.016911  -0.044369   0.024113   0.024106
     2  C    0.001467  -0.009090  -0.031306  -0.019020  -0.008618
     3  C    0.023876   0.007234   0.068690  -0.000915  -0.008774
     4  C   -0.028609  -0.008976  -0.028614   0.001146   0.001138
     5  C    0.068678   0.007237   0.023881  -0.008780  -0.000909
     6  C   -0.031305  -0.009089   0.001464  -0.008620  -0.019012
     7  Cl   0.020093   0.004425   0.000323  -0.000284   0.000287
     8  Cl   0.004425  -0.017320   0.004425  -0.000149  -0.000149
     9  Cl   0.000323   0.004425   0.020097   0.000286  -0.000284
    10  H   -0.000284  -0.000149   0.000286   0.036476   0.000477
    11  H    0.000287  -0.000149  -0.000284   0.000477   0.036478
 Mulliken charges and spin densities:
               1          2
     1  C    0.149753  -0.025293
     2  C   -0.027356   0.010147
     3  C   -1.142151   0.101525
     4  C    0.336639   0.727831
     5  C   -1.142050   0.101526
     6  C   -0.027418   0.010146
     7  Cl   0.423194   0.014593
     8  Cl   0.585593  -0.004542
     9  Cl   0.423188   0.014593
    10  H    0.210285   0.024731
    11  H    0.210322   0.024742
 Sum of Mulliken charges =  -0.00000   1.00000
 Mulliken charges and spin densities with hydrogens summed into heavy atoms:
               1          2
     1  C    0.149753  -0.025293
     2  C   -0.027356   0.010147
     3  C   -0.931866   0.126256
     4  C    0.336639   0.727831
     5  C   -0.931727   0.126269
     6  C   -0.027418   0.010146
     7  Cl   0.423194   0.014593
     8  Cl   0.585593  -0.004542
     9  Cl   0.423188   0.014593
 Electronic spatial extent (au):  <R**2>=           1784.9698
 Charge=             -0.0000 electrons
 Dipole moment (field-independent basis, Debye):
    X=             -0.0000    Y=             -1.5875    Z=              0.0000  Tot=              1.5875
 Quadrupole moment (field-independent basis, Debye-Ang):
   XX=            -69.3112   YY=            -68.9541   ZZ=            -74.2852
   XY=              0.0002   XZ=              0.0000   YZ=              0.0000
 Traceless Quadrupole moment (field-independent basis, Debye-Ang):
   XX=              1.5390   YY=              1.8961   ZZ=             -3.4350
   XY=              0.0002   XZ=              0.0000   YZ=              0.0000
 Octapole moment (field-independent basis, Debye-Ang**2):
  XXX=             -0.0003  YYY=             18.5974  ZZZ=              0.0000  XYY=             -0.0007
  XXY=             -2.4035  XXZ=              0.0000  XZZ=              0.0004  YZZ=              9.1751
  YYZ=              0.0000  XYZ=              0.0000
 Hexadecapole moment (field-independent basis, Debye-Ang**3):
 XXXX=          -1358.8779 YYYY=           -844.8420 ZZZZ=            -85.9688 XXXY=              0.0014
 XXXZ=              0.0000 YYYX=              0.0004 YYYZ=              0.0000 ZZZX=              0.0000
 ZZZY=              0.0000 XXYY=           -341.1000 XXZZ=           -258.2986 YYZZ=           -169.5484
 XXYZ=              0.0000 YYXZ=              0.0000 ZZXY=             -0.0013
 N-N= 6.395689933196D+02 E-N=-5.093585219934D+03  KE= 1.606564650014D+03
 Symmetry A'   KE= 1.462293692682D+03
 Symmetry A"   KE= 1.442709573326D+02
 Symmetry A'   SP= 1.000000000000D+00
 Symmetry A"   SP=-1.633405015892D-14
                          Isotropic Fermi Contact Couplings
        Atom                 a.u.       MegaHertz       Gauss      10(-4) cm-1
     1  C(13)             -0.01095     -12.31361      -4.39380      -4.10738
     2  C(13)              0.07314      82.22744      29.34079      27.42812
     3  C(13)              0.00963      10.83037       3.86454       3.61262
     4  C(13)              0.42638     479.33072     171.03712     159.88752
     5  C(13)              0.00962      10.81992       3.86082       3.60914
     6  C(13)              0.07314      82.22707      29.34066      27.42800
     7  Cl(35)             0.00237       1.03737       0.37016       0.34603
     8  Cl(35)             0.00089       0.38885       0.13875       0.12971
     9  Cl(35)             0.00237       1.03770       0.37028       0.34614
    10  H(1)               0.01231      55.04552      19.64161      18.36121
    11  H(1)               0.01232      55.05580      19.64528      18.36464
 --------------------------------------------------------
       Center         ----  Spin Dipole Couplings  ----
                      3XX-RR        3YY-RR        3ZZ-RR
 --------------------------------------------------------
     1   Atom        0.020788      0.036132     -0.056919
     2   Atom       -0.036771      0.037521     -0.000749
     3   Atom        0.065225      0.032728     -0.097953
     4   Atom       -0.573210      0.972483     -0.399273
     5   Atom        0.065230      0.032723     -0.097952
     6   Atom       -0.036770      0.037519     -0.000749
     7   Atom       -0.010580      0.033055     -0.022476
     8   Atom        0.016277      0.034739     -0.051016
     9   Atom       -0.010584      0.033059     -0.022476
    10   Atom        0.020958     -0.009157     -0.011800
    11   Atom        0.020954     -0.009156     -0.011798
 --------------------------------------------------------
                        XY            XZ            YZ
 --------------------------------------------------------
     1   Atom       -0.000000      0.000000      0.000000
     2   Atom       -0.004149      0.000000      0.000000
     3   Atom        0.050395      0.000000      0.000000
     4   Atom       -0.000003      0.000000      0.000000
     5   Atom       -0.050400      0.000000      0.000000
     6   Atom        0.004149      0.000000      0.000000
     7   Atom       -0.068579      0.000000      0.000000
     8   Atom       -0.000000      0.000000      0.000000
     9   Atom        0.068579      0.000000      0.000000
    10   Atom        0.006152      0.000000      0.000000
    11   Atom       -0.006150      0.000000      0.000000
 --------------------------------------------------------


 ---------------------------------------------------------------------------------
              Anisotropic Spin Dipole Couplings in Principal Axis System
 ---------------------------------------------------------------------------------

       Atom             a.u.   MegaHertz   Gauss  10(-4) cm-1        Axes

              Baa    -0.0569    -7.638    -2.725    -2.548  0.0000  0.0000  1.0000
     1 C(13)  Bbb     0.0208     2.790     0.995     0.930  1.0000  0.0000  0.0000
              Bcc     0.0361     4.849     1.730     1.617 -0.0000  1.0000  0.0000
 
              Baa    -0.0370    -4.965    -1.772    -1.656  0.9985  0.0556  0.0000
     2 C(13)  Bbb    -0.0007    -0.101    -0.036    -0.034  0.0000  0.0000  1.0000
              Bcc     0.0378     5.066     1.808     1.690 -0.0556  0.9985  0.0000
 
              Baa    -0.0980   -13.144    -4.690    -4.384  0.0000  0.0000  1.0000
     3 C(13)  Bbb    -0.0040    -0.533    -0.190    -0.178 -0.5887  0.8084 -0.0000
              Bcc     0.1019    13.678     4.880     4.562  0.8084  0.5887  0.0000
 
              Baa    -0.5732   -76.919   -27.447   -25.657  1.0000  0.0000  0.0000
     4 C(13)  Bbb    -0.3993   -53.579   -19.118   -17.872  0.0000  0.0000  1.0000
              Bcc     0.9725   130.498    46.565    43.529 -0.0000  1.0000  0.0000
 
              Baa    -0.0980   -13.144    -4.690    -4.384  0.0000  0.0000  1.0000
     5 C(13)  Bbb    -0.0040    -0.534    -0.191    -0.178  0.5887  0.8084  0.0000
              Bcc     0.1019    13.678     4.881     4.563  0.8084 -0.5887 -0.0000
 
              Baa    -0.0370    -4.965    -1.772    -1.656  0.9985 -0.0556 -0.0000
     6 C(13)  Bbb    -0.0007    -0.100    -0.036    -0.034  0.0000  0.0000  1.0000
              Bcc     0.0377     5.066     1.808     1.690  0.0556  0.9985  0.0000
 
              Baa    -0.0607    -3.178    -1.134    -1.060  0.8072  0.5903  0.0000
     7 Cl(35) Bbb    -0.0225    -1.176    -0.420    -0.392  0.0000  0.0000  1.0000
              Bcc     0.0832     4.355     1.554     1.453 -0.5903  0.8072  0.0000
 
              Baa    -0.0510    -2.670    -0.953    -0.891  0.0000  0.0000  1.0000
     8 Cl(35) Bbb     0.0163     0.852     0.304     0.284  1.0000  0.0000  0.0000
              Bcc     0.0347     1.818     0.649     0.606 -0.0000  1.0000  0.0000
 
              Baa    -0.0607    -3.178    -1.134    -1.060  0.8072 -0.5902 -0.0000
     9 Cl(35) Bbb    -0.0225    -1.176    -0.420    -0.392  0.0000  0.0000  1.0000
              Bcc     0.0832     4.355     1.554     1.453  0.5902  0.8072  0.0000
 
              Baa    -0.0118    -6.296    -2.247    -2.100  0.0000  0.0000  1.0000
    10 H(1)   Bbb    -0.0104    -5.531    -1.973    -1.845 -0.1927  0.9813 -0.0000
              Bcc     0.0222    11.827     4.220     3.945  0.9813  0.1927  0.0000
 
              Baa    -0.0118    -6.295    -2.246    -2.100  0.0000  0.0000  1.0000
    11 H(1)   Bbb    -0.0104    -5.530    -1.973    -1.844  0.1927  0.9813  0.0000
              Bcc     0.0222    11.824     4.219     3.944  0.9813 -0.1927 -0.0000
 

 ---------------------------------------------------------------------------------

 Calling FoFJK, ICntrl=      2127 FMM=F ISym2X=1 I1Cent= 0 IOpClX= 1 NMat=1 NMatS=1 NMatT=0.
 ***** Axes restored to original set *****
 -------------------------------------------------------------------
 Center     Atomic                   Forces (Hartrees/Bohr)
 Number     Number              X              Y              Z
 -------------------------------------------------------------------
      1        6           0.020735494   -0.011223522   -0.000000000
      2        6           0.007146813   -0.031522034   -0.000000000
      3        6          -0.010323502    0.003056063   -0.000000000
      4        6           0.009182367   -0.004976579   -0.000000000
      5        6          -0.008196187    0.006876544   -0.000000000
      6        6           0.030300826    0.011247941   -0.000000000
      7       17          -0.017916174   -0.010804663   -0.000000000
      8       17          -0.017309186    0.009369284   -0.000000000
      9       17          -0.000749752    0.020908452   -0.000000000
     10        1          -0.010176862   -0.003435627   -0.000000000
     11        1          -0.002693838    0.010504139   -0.000000000
 -------------------------------------------------------------------
 Cartesian Forces:  Max     0.031522034 RMS     0.011652251

 GradGradGradGradGradGradGradGradGradGradGradGradGradGradGradGradGradGrad
 Berny optimization.
 FormGI is forming the generalized inverse of G from B-inverse, IUseBI=4.
 Internal  Forces:  Max     0.020917061 RMS     0.007039817
 Search for a local minimum.
 Step number   1 out of a maximum of   57
 All quantities printed in internal units (Hartrees-Bohrs-Radians)
 Mixed Optimization -- RFO/linear search
 Second derivative matrix not updated -- first step.
 ITU=  0
     Eigenvalues ---    0.01886   0.01893   0.01898   0.01900   0.01970
     Eigenvalues ---    0.02083   0.02134   0.02408   0.16000   0.16000
     Eigenvalues ---    0.23283   0.23491   0.25000   0.25000   0.25000
     Eigenvalues ---    0.25000   0.33951   0.33970   0.37088   0.37227
     Eigenvalues ---    0.37227   0.40399   0.41197   0.43235   0.43455
     Eigenvalues ---    0.49308   0.50783
 RFO step:  Lambda=-6.49446632D-03 EMin= 1.88639701D-02
 Linear search not attempted -- first point.
 Iteration  1 RMS(Cart)=  0.02066516 RMS(Int)=  0.00023353
 Iteration  2 RMS(Cart)=  0.00036173 RMS(Int)=  0.00004693
 Iteration  3 RMS(Cart)=  0.00000008 RMS(Int)=  0.00004693
 ClnCor:  largest displacement from symmetrization is 1.42D-10 for atom     8.
 Variable       Old X    -DE/DX   Delta X   Delta X   Delta X     New X
                                 (Linear)    (Quad)   (Total)
    R1        2.67452  -0.00951   0.00000  -0.02191  -0.02197   2.65255
    R2        2.67453  -0.00951   0.00000  -0.02191  -0.02197   2.65255
    R3        3.19414   0.01968   0.00000   0.05216   0.05216   3.24630
    R4        2.67112  -0.01265   0.00000  -0.02868  -0.02868   2.64243
    R5        3.19205   0.02092   0.00000   0.05522   0.05522   3.24727
    R6        2.58675  -0.00370   0.00000  -0.00696  -0.00689   2.57986
    R7        2.07381  -0.01054   0.00000  -0.03044  -0.03044   2.04337
    R8        2.58676  -0.00370   0.00000  -0.00697  -0.00690   2.57985
    R9        2.67112  -0.01265   0.00000  -0.02869  -0.02869   2.64243
   R10        2.07412  -0.01064   0.00000  -0.03076  -0.03076   2.04337
   R11        3.19205   0.02092   0.00000   0.05522   0.05522   3.24727
    A1        2.10447  -0.00337   0.00000  -0.01480  -0.01494   2.08952
    A2        2.08936   0.00168   0.00000   0.00740   0.00747   2.09683
    A3        2.08936   0.00168   0.00000   0.00740   0.00747   2.09683
    A4        2.09634   0.00183   0.00000   0.00581   0.00574   2.10208
    A5        2.11277  -0.00164   0.00000  -0.00573  -0.00570   2.10707
    A6        2.07408  -0.00019   0.00000  -0.00008  -0.00004   2.07404
    A7        2.00275   0.00608   0.00000   0.02613   0.02619   2.02894
    A8        2.13159  -0.00520   0.00000  -0.02604  -0.02607   2.10552
    A9        2.14884  -0.00088   0.00000  -0.00008  -0.00011   2.14873
   A10        2.26373  -0.01246   0.00000  -0.04909  -0.04891   2.21482
   A11        2.00275   0.00608   0.00000   0.02614   0.02620   2.02894
   A12        2.14884  -0.00088   0.00000  -0.00009  -0.00012   2.14872
   A13        2.13160  -0.00520   0.00000  -0.02605  -0.02608   2.10552
   A14        2.09634   0.00183   0.00000   0.00581   0.00573   2.10207
   A15        2.11276  -0.00164   0.00000  -0.00573  -0.00569   2.10707
   A16        2.07408  -0.00019   0.00000  -0.00007  -0.00004   2.07405
    D1        0.00000   0.00000   0.00000   0.00000   0.00000   0.00000
    D2        3.14159  -0.00000   0.00000  -0.00000   0.00000   3.14159
    D3        3.14159   0.00000   0.00000   0.00000   0.00000   3.14159
    D4        0.00000   0.00000   0.00000   0.00000   0.00000   0.00000
    D5        0.00000  -0.00000   0.00000   0.00000   0.00000   0.00000
    D6        3.14159   0.00000   0.00000   0.00000   0.00000   3.14159
    D7        3.14159  -0.00000   0.00000  -0.00000   0.00000   3.14159
    D8        0.00000  -0.00000   0.00000  -0.00000   0.00000   0.00000
    D9        0.00000   0.00000   0.00000  -0.00000   0.00000   0.00000
   D10        3.14159  -0.00000   0.00000  -0.00000   0.00000   3.14159
   D11        3.14159   0.00000   0.00000  -0.00000   0.00000   3.14159
   D12        0.00000  -0.00000   0.00000  -0.00000   0.00000   0.00000
   D13        0.00000   0.00000   0.00000   0.00000   0.00000   0.00000
   D14        3.14159  -0.00000   0.00000   0.00000   0.00000   3.14159
   D15        0.00000  -0.00000   0.00000   0.00000   0.00000   0.00000
   D16        3.14159  -0.00000   0.00000  -0.00000   0.00000   3.14159
   D17        0.00000   0.00000   0.00000  -0.00000   0.00000   0.00000
   D18        3.14159  -0.00000   0.00000  -0.00000   0.00000   3.14159
   D19        3.14159  -0.00000   0.00000   0.00000   0.00000   3.14159
   D20        0.00000   0.00000   0.00000  -0.00000   0.00000   0.00000
         Item               Value     Threshold  Converged?
 Maximum Force            0.020917     0.000450     NO 
 RMS     Force            0.007040     0.000300     NO 
 Maximum Displacement     0.067726     0.001800     NO 
 RMS     Displacement     0.020717     0.001200     NO 
 Predicted change in Energy=-3.308742D-03
 GradGradGradGradGradGradGradGradGradGradGradGradGradGradGradGradGradGrad

                          Input orientation:                          
 ---------------------------------------------------------------------
 Center     Atomic      Atomic             Coordinates (Angstroms)
 Number     Number       Type             X           Y           Z
 ---------------------------------------------------------------------
      1          6           0       -3.157521    0.171412   -0.000000
      2          6           0       -1.959851    0.903449   -0.000000
      3          6           0       -0.726658    0.244270   -0.000000
      4          6           0       -0.771360   -1.120201   -0.000000
      5          6           0       -1.889346   -1.903704   -0.000000
      6          6           0       -3.115559   -1.231631   -0.000000
      7         17           0       -4.565804   -2.153382   -0.000000
      8         17           0       -4.668263    0.989168   -0.000000
      9         17           0       -1.981081    2.621699   -0.000000
     10          1           0        0.197896    0.805006   -0.000000
     11          1           0       -1.853294   -2.984406   -0.000000
 ---------------------------------------------------------------------
                    Distance matrix (angstroms):
                    1          2          3          4          5
     1  C    0.000000
     2  C    1.403670   0.000000
     3  C    2.431955   1.398315   0.000000
     4  C    2.713305   2.346843   1.365203   0.000000
     5  C    2.431949   2.808039   2.442466   1.365200   0.000000
     6  C    1.403670   2.427803   2.808048   2.346845   1.398313
     7  Cl   2.718074   4.016865   4.526342   3.932590   2.688078
     8  Cl   1.717867   2.709768   4.011375   4.431173   4.011370
     9  Cl   2.718073   1.718381   2.688075   3.932587   4.526333
    10  H    3.414712   2.159992   1.081307   2.155430   3.419604
    11  H    3.414703   3.889315   3.419599   2.155421   1.081303
                    6          7          8          9         10
     6  C    0.000000
     7  Cl   1.718381   0.000000
     8  Cl   2.709768   3.144219   0.000000
     9  Cl   4.016864   5.429750   3.144218   0.000000
    10  H    3.889328   5.607574   4.869643   2.836955   0.000000
    11  H    2.159984   2.836955   4.869635   5.607561   4.308947
                   11
    11  H    0.000000
 Stoichiometry    C6H2Cl3(2)
 Framework group  CS[SG(C6H2Cl3)]
 Deg. of freedom    19
 Full point group                 CS      NOp   2
 Largest Abelian subgroup         CS      NOp   2
 Largest concise Abelian subgroup C1      NOp   1
                         Standard orientation:                         
 ---------------------------------------------------------------------
 Center     Atomic      Atomic             Coordinates (Angstroms)
 Number     Number       Type             X           Y           Z
 ---------------------------------------------------------------------
      1          6           0       -0.000000    0.242556   -0.000000
      2          6           0        1.213900   -0.462241    0.000000
      3          6           0        1.221232   -1.860536    0.000000
      4          6           0       -0.000005   -2.470750    0.000000
      5          6           0       -1.221234   -1.860528   -0.000000
      6          6           0       -1.213903   -0.462235   -0.000000
      7         17           0       -2.714875    0.374376   -0.000000
      8         17           0        0.000004    1.960423   -0.000000
      9         17           0        2.714875    0.374364    0.000000
     10          1           0        2.154474   -2.406690    0.000000
     11          1           0       -2.154473   -2.406678   -0.000000
 ---------------------------------------------------------------------
 Rotational constants (GHZ):           1.5905815           0.8479592           0.5530965
 Standard basis: 6-311++G(d,p) (5D, 7F)
 There are   183 symmetry adapted cartesian basis functions of A'  symmetry.
 There are    62 symmetry adapted cartesian basis functions of A"  symmetry.
 There are   174 symmetry adapted basis functions of A'  symmetry.
 There are    62 symmetry adapted basis functions of A"  symmetry.
   236 basis functions,   393 primitive gaussians,   245 cartesian basis functions
    45 alpha electrons       44 beta electrons
       nuclear repulsion energy       637.5817410617 Hartrees.
 NAtoms=   11 NActive=   11 NUniq=   11 SFac= 1.00D+00 NAtFMM=   60 NAOKFM=F Big=F
 Integral buffers will be    131072 words long.
 Raffenetti 2 integral format.
 Two-electron integral symmetry is turned on.
 One-electron integrals computed using PRISM.
 NBasis=   236 RedAO= T EigKep=  1.14D-06  NBF=   174    62
 NBsUse=   236 1.00D-06 EigRej= -1.00D+00 NBFU=   174    62
 Initial guess from the checkpoint file:  "frequency_chks/123_ClBzNeutralRadical_Freq.chk"
 B after Tr=     0.000000   -0.000000    0.000000
         Rot=    1.000000    0.000000    0.000000    0.000001 Ang=   0.00 deg.
 Initial guess orbital symmetries:
 Alpha Orbitals:
       Occupied  (A') (A') (A') (A') (A') (A') (A') (A') (A') (A')
                 (A') (A') (A') (A') (A') (A") (A") (A') (A') (A")
                 (A') (A') (A') (A') (A') (A') (A') (A') (A') (A')
                 (A') (A') (A') (A") (A') (A') (A") (A") (A') (A")
                 (A') (A') (A') (A") (A")
       Virtual   (A") (A") (A') (A') (A') (A') (A') (A') (A") (A')
                 (A") (A') (A') (A") (A') (A") (A') (A') (A") (A')
                 (A") (A') (A') (A') (A') (A") (A') (A") (A") (A')
                 (A') (A') (A') (A') (A') (A") (A') (A') (A') (A')
                 (A') (A') (A') (A') (A') (A') (A') (A') (A') (A')
                 (A') (A") (A') (A') (A') (A") (A') (A") (A') (A')
                 (A') (A") (A') (A") (A') (A") (A") (A") (A') (A')
                 (A') (A') (A") (A') (A') (A') (A") (A') (A') (A")
                 (A') (A') (A') (A') (A") (A') (A") (A") (A') (A')
                 (A") (A') (A') (A') (A') (A') (A") (A') (A') (A')
                 (A") (A") (A') (A') (A') (A') (A") (A') (A") (A')
                 (A") (A') (A') (A') (A') (A") (A") (A') (A') (A')
                 (A") (A') (A') (A") (A') (A") (A') (A") (A') (A')
                 (A") (A') (A') (A") (A') (A") (A") (A') (A") (A')
                 (A') (A') (A') (A') (A') (A') (A') (A") (A') (A')
                 (A') (A') (A") (A") (A") (A") (A') (A") (A') (A')
                 (A') (A') (A') (A') (A') (A') (A') (A') (A') (A')
                 (A') (A') (A') (A') (A') (A') (A') (A') (A') (A")
                 (A") (A") (A') (A') (A') (A') (A') (A') (A') (A')
                 (A')
 Beta  Orbitals:
       Occupied  (A') (A') (A') (A') (A') (A') (A') (A') (A') (A')
                 (A') (A') (A') (A') (A') (A") (A") (A') (A') (A")
                 (A') (A') (A') (A') (A') (A') (A') (A') (A') (A')
                 (A') (A') (A') (A") (A') (A') (A") (A") (A') (A')
                 (A") (A') (A") (A")
       Virtual   (A') (A") (A') (A") (A') (A') (A') (A') (A") (A')
                 (A') (A") (A') (A") (A') (A') (A") (A') (A') (A")
                 (A') (A') (A") (A') (A') (A") (A') (A') (A') (A")
                 (A') (A") (A') (A') (A') (A') (A") (A') (A') (A')
                 (A') (A') (A') (A') (A') (A') (A') (A') (A') (A')
                 (A') (A") (A') (A') (A') (A') (A") (A') (A") (A')
                 (A') (A') (A") (A') (A') (A") (A") (A") (A') (A")
                 (A') (A') (A") (A') (A') (A') (A') (A') (A") (A')
                 (A') (A") (A') (A') (A') (A') (A") (A") (A") (A')
                 (A') (A") (A') (A') (A') (A') (A') (A") (A') (A')
                 (A') (A") (A") (A') (A') (A') (A') (A") (A') (A")
                 (A') (A") (A') (A') (A') (A') (A") (A") (A') (A')
                 (A') (A") (A') (A') (A") (A') (A') (A") (A") (A')
                 (A') (A") (A') (A') (A") (A') (A") (A") (A') (A")
                 (A') (A') (A') (A') (A') (A') (A') (A') (A") (A')
                 (A') (A') (A') (A") (A") (A") (A") (A') (A") (A')
                 (A') (A') (A') (A') (A') (A') (A') (A') (A') (A')
                 (A') (A') (A') (A') (A') (A') (A') (A') (A') (A')
                 (A") (A") (A") (A') (A') (A') (A') (A') (A') (A')
                 (A') (A')
 Initial guess <Sx>= 0.0000 <Sy>= 0.0000 <Sz>= 0.5000 <S**2>= 0.7629 S= 0.5064
 ExpMin= 3.60D-02 ExpMax= 1.06D+05 ExpMxC= 3.62D+03 IAcc=3 IRadAn=         5 AccDes= 0.00D+00
 Harris functional with IExCor= 1009 and IRadAn=       5 diagonalized for initial guess.
 HarFok:  IExCor= 1009 AccDes= 0.00D+00 IRadAn=         5 IDoV= 1 UseB2=F ITyADJ=14
 ICtDFT=  3500011 ScaDFX=  1.000000  1.000000  1.000000  1.000000
 FoFCou: FMM=F IPFlag=           0 FMFlag=      100000 FMFlg1=           0
         NFxFlg=           0 DoJE=T BraDBF=F KetDBF=T FulRan=T
         wScrn=  0.000000 ICntrl=       500 IOpCl=  0 I1Cent=   200000004 NGrid=           0
         NMat0=    1 NMatS0=      1 NMatT0=    0 NMatD0=    1 NMtDS0=    0 NMtDT0=    0
 Petite list used in FoFCou.
 Keep R1 and R2 ints in memory in symmetry-blocked form, NReq=617299900.
 Requested convergence on RMS density matrix=1.00D-08 within 128 cycles.
 Requested convergence on MAX density matrix=1.00D-06.
 Requested convergence on             energy=1.00D-06.
 No special actions if energy rises.
 SCF Done:  E(UM062X) =  -1610.30436574     A.U. after   20 cycles
            NFock= 20  Conv=0.65D-08     -V/T= 2.0023
 <Sx>= 0.0000 <Sy>= 0.0000 <Sz>= 0.5000 <S**2>= 0.7625 S= 0.5062
 <L.S>=  0.00000000000    
 Annihilation of the first spin contaminant:
 S**2 before annihilation     0.7625,   after     0.7501
 Calling FoFJK, ICntrl=      2127 FMM=F ISym2X=1 I1Cent= 0 IOpClX= 1 NMat=1 NMatS=1 NMatT=0.
 ***** Axes restored to original set *****
 -------------------------------------------------------------------
 Center     Atomic                   Forces (Hartrees/Bohr)
 Number     Number              X              Y              Z
 -------------------------------------------------------------------
      1        6           0.002931250   -0.001586900   -0.000000000
      2        6           0.000622309   -0.008851320   -0.000000000
      3        6          -0.003185042    0.002955395    0.000000000
      4        6           0.004131390   -0.002233241    0.000000000
      5        6          -0.004217216    0.001049294   -0.000000000
      6        6           0.007750703    0.004320834    0.000000000
      7       17          -0.004484704   -0.003271152   -0.000000000
      8       17          -0.003379312    0.001829277    0.000000000
      9       17           0.000286359    0.005544154    0.000000000
     10        1           0.000259641    0.001024128    0.000000000
     11        1          -0.000715378   -0.000780470   -0.000000000
 -------------------------------------------------------------------
 Cartesian Forces:  Max     0.008851320 RMS     0.003050300

 GradGradGradGradGradGradGradGradGradGradGradGradGradGradGradGradGradGrad
 Berny optimization.
 Using GEDIIS/GDIIS optimizer.
 FormGI is forming the generalized inverse of G from B-inverse, IUseBI=4.
 Internal  Forces:  Max     0.005540194 RMS     0.001656822
 Search for a local minimum.
 Step number   2 out of a maximum of   57
 All quantities printed in internal units (Hartrees-Bohrs-Radians)
 Mixed Optimization -- RFO/linear search
 Update second derivatives using D2CorX and points    1    2
 DE= -3.84D-03 DEPred=-3.31D-03 R= 1.16D+00
 TightC=F SS=  1.41D+00  RLast= 1.38D-01 DXNew= 5.0454D-01 4.1340D-01
 Trust test= 1.16D+00 RLast= 1.38D-01 DXMaxT set to 4.13D-01
 ITU=  1  0
 Use linear search instead of GDIIS.
     Eigenvalues ---    0.01886   0.01893   0.01898   0.01900   0.01969
     Eigenvalues ---    0.02089   0.02139   0.02399   0.15767   0.16000
     Eigenvalues ---    0.21980   0.23487   0.24498   0.25000   0.25000
     Eigenvalues ---    0.25090   0.31629   0.33961   0.35264   0.37227
     Eigenvalues ---    0.37245   0.40303   0.40844   0.43224   0.43236
     Eigenvalues ---    0.50734   0.51130
 RFO step:  Lambda=-2.04252759D-04 EMin= 1.88639701D-02
 Quartic linear search produced a step of  0.23465.
 Iteration  1 RMS(Cart)=  0.00697051 RMS(Int)=  0.00003731
 Iteration  2 RMS(Cart)=  0.00005032 RMS(Int)=  0.00001552
 Iteration  3 RMS(Cart)=  0.00000000 RMS(Int)=  0.00001552
 ClnCor:  largest displacement from symmetrization is 1.78D-09 for atom     8.
 Variable       Old X    -DE/DX   Delta X   Delta X   Delta X     New X
                                 (Linear)    (Quad)   (Total)
    R1        2.65255  -0.00165  -0.00516  -0.00072  -0.00590   2.64666
    R2        2.65255  -0.00165  -0.00516  -0.00072  -0.00590   2.64666
    R3        3.24630   0.00384   0.01224   0.00212   0.01436   3.26066
    R4        2.64243  -0.00212  -0.00673  -0.00015  -0.00688   2.63555
    R5        3.24727   0.00554   0.01296   0.00707   0.02003   3.26730
    R6        2.57986   0.00256  -0.00162   0.00801   0.00641   2.58627
    R7        2.04337   0.00075  -0.00714   0.00896   0.00182   2.04519
    R8        2.57985   0.00257  -0.00162   0.00802   0.00642   2.58627
    R9        2.64243  -0.00212  -0.00673  -0.00015  -0.00688   2.63555
   R10        2.04337   0.00076  -0.00722   0.00904   0.00182   2.04519
   R11        3.24727   0.00554   0.01296   0.00707   0.02003   3.26730
    A1        2.08952  -0.00108  -0.00351  -0.00422  -0.00777   2.08176
    A2        2.09683   0.00054   0.00175   0.00211   0.00388   2.10071
    A3        2.09683   0.00054   0.00175   0.00211   0.00388   2.10071
    A4        2.10208   0.00152   0.00135   0.00523   0.00655   2.10863
    A5        2.10707  -0.00018  -0.00134   0.00081  -0.00052   2.10655
    A6        2.07404  -0.00134  -0.00001  -0.00604  -0.00603   2.06801
    A7        2.02894   0.00065   0.00614  -0.00109   0.00508   2.03401
    A8        2.10552  -0.00108  -0.00612  -0.00262  -0.00874   2.09678
    A9        2.14873   0.00043  -0.00003   0.00370   0.00367   2.15240
   A10        2.21482  -0.00325  -0.01148  -0.00406  -0.01548   2.19934
   A11        2.02894   0.00065   0.00615  -0.00110   0.00507   2.03401
   A12        2.14872   0.00043  -0.00003   0.00371   0.00367   2.15239
   A13        2.10552  -0.00108  -0.00612  -0.00261  -0.00874   2.09678
   A14        2.10207   0.00152   0.00134   0.00524   0.00656   2.10863
   A15        2.10707  -0.00018  -0.00134   0.00081  -0.00052   2.10655
   A16        2.07405  -0.00134  -0.00001  -0.00604  -0.00604   2.06801
    D1       -0.00000  -0.00000   0.00000  -0.00000   0.00000   0.00000
    D2        3.14159   0.00000   0.00000   0.00000   0.00000   3.14159
    D3        3.14159  -0.00000   0.00000  -0.00000   0.00000   3.14159
    D4        0.00000   0.00000   0.00000  -0.00000   0.00000   0.00000
    D5        0.00000  -0.00000   0.00000  -0.00000  -0.00000   0.00000
    D6        3.14159  -0.00000   0.00000  -0.00000   0.00000   3.14159
    D7        3.14159  -0.00000   0.00000  -0.00000   0.00000   3.14159
    D8       -0.00000  -0.00000   0.00000  -0.00000   0.00000   0.00000
    D9        0.00000   0.00000   0.00000   0.00000   0.00000   0.00000
   D10        3.14159   0.00000   0.00000   0.00000   0.00000   3.14159
   D11        3.14159   0.00000   0.00000   0.00000   0.00000   3.14159
   D12       -0.00000   0.00000   0.00000   0.00000   0.00000   0.00000
   D13       -0.00000  -0.00000   0.00000  -0.00000   0.00000   0.00000
   D14        3.14159  -0.00000   0.00000  -0.00000   0.00000   3.14159
   D15        0.00000  -0.00000   0.00000  -0.00000  -0.00000   0.00000
   D16        3.14159   0.00000   0.00000  -0.00000   0.00000   3.14159
   D17       -0.00000   0.00000   0.00000   0.00000   0.00000   0.00000
   D18        3.14159   0.00000   0.00000   0.00000   0.00000   3.14159
   D19        3.14159   0.00000   0.00000   0.00000   0.00000   3.14159
   D20       -0.00000   0.00000   0.00000   0.00000   0.00000   0.00000
         Item               Value     Threshold  Converged?
 Maximum Force            0.005540     0.000450     NO 
 RMS     Force            0.001657     0.000300     NO 
 Maximum Displacement     0.021489     0.001800     NO 
 RMS     Displacement     0.006977     0.001200     NO 
 Predicted change in Energy=-2.419062D-04
 GradGradGradGradGradGradGradGradGradGradGradGradGradGradGradGradGradGrad

                          Input orientation:                          
 ---------------------------------------------------------------------
 Center     Atomic      Atomic             Coordinates (Angstroms)
 Number     Number       Type             X           Y           Z
 ---------------------------------------------------------------------
      1          6           0       -3.156936    0.171096   -0.000000
      2          6           0       -1.959101    0.896860    0.000000
      3          6           0       -0.727371    0.242680    0.000000
      4          6           0       -0.761591   -1.125488    0.000000
      5          6           0       -1.888404   -1.902243   -0.000000
      6          6           0       -3.109629   -1.228655   -0.000000
      7         17           0       -4.565686   -2.160998   -0.000000
      8         17           0       -4.674359    0.992469   -0.000000
      9         17           0       -1.974640    2.625769    0.000000
     10          1           0        0.191542    0.814440    0.000000
     11          1           0       -1.864665   -2.984251   -0.000000
 ---------------------------------------------------------------------
                    Distance matrix (angstroms):
                    1          2          3          4          5
     1  C    0.000000
     2  C    1.400550   0.000000
     3  C    2.430619   1.394672   0.000000
     4  C    2.723749   2.350303   1.368596   0.000000
     5  C    2.430619   2.799996   2.438995   1.368596   0.000000
     6  C    1.400550   2.416925   2.799996   2.350303   1.394673
     7  Cl   2.724563   4.018057   4.528833   3.942514   2.689757
     8  Cl   1.725464   2.716941   4.017574   4.449213   4.017574
     9  Cl   2.724563   1.728979   2.689757   3.942515   4.528834
    10  H    3.409720   2.152222   1.082270   2.161431   3.421482
    11  H    3.409718   3.882260   3.421480   2.161428   1.082268
                    6          7          8          9         10
     6  C    0.000000
     7  Cl   1.728978   0.000000
     8  Cl   2.716942   3.155339   0.000000
     9  Cl   4.018058   5.443038   3.155338   0.000000
    10  H    3.882263   5.611100   4.869157   2.823696   0.000000
    11  H    2.152220   2.823696   4.869156   5.611098   4.319495
                   11
    11  H    0.000000
 Stoichiometry    C6H2Cl3(2)
 Framework group  CS[SG(C6H2Cl3)]
 Deg. of freedom    19
 Full point group                 CS      NOp   2
 Largest Abelian subgroup         CS      NOp   2
 Largest concise Abelian subgroup C1      NOp   1
                         Standard orientation:                         
 ---------------------------------------------------------------------
 Center     Atomic      Atomic             Coordinates (Angstroms)
 Number     Number       Type             X           Y           Z
 ---------------------------------------------------------------------
      1          6           0        0.243088    0.000000   -0.000000
      2          6           0       -0.464838   -1.208462    0.000000
      3          6           0       -1.859467   -1.219497    0.000000
      4          6           0       -2.480661    0.000000    0.000000
      5          6           0       -1.859467    1.219498    0.000000
      6          6           0       -0.464838    1.208463   -0.000000
      7         17           0        0.371839    2.721519   -0.000000
      8         17           0        1.968552   -0.000001   -0.000000
      9         17           0        0.371839   -2.721519    0.000000
     10          1           0       -2.395411   -2.159748    0.000000
     11          1           0       -2.395411    2.159746    0.000000
 ---------------------------------------------------------------------
 Rotational constants (GHZ):           1.5834451           0.8449055           0.5509342
 Standard basis: 6-311++G(d,p) (5D, 7F)
 There are   183 symmetry adapted cartesian basis functions of A'  symmetry.
 There are    62 symmetry adapted cartesian basis functions of A"  symmetry.
 There are   174 symmetry adapted basis functions of A'  symmetry.
 There are    62 symmetry adapted basis functions of A"  symmetry.
   236 basis functions,   393 primitive gaussians,   245 cartesian basis functions
    45 alpha electrons       44 beta electrons
       nuclear repulsion energy       636.3759944932 Hartrees.
 NAtoms=   11 NActive=   11 NUniq=   11 SFac= 1.00D+00 NAtFMM=   60 NAOKFM=F Big=F
 Integral buffers will be    131072 words long.
 Raffenetti 2 integral format.
 Two-electron integral symmetry is turned on.
 One-electron integrals computed using PRISM.
 NBasis=   236 RedAO= T EigKep=  1.14D-06  NBF=   174    62
 NBsUse=   236 1.00D-06 EigRej= -1.00D+00 NBFU=   174    62
 Initial guess from the checkpoint file:  "frequency_chks/123_ClBzNeutralRadical_Freq.chk"
 B after Tr=     0.000000    0.000000    0.000000
         Rot=    0.707107    0.000000    0.000000    0.707106 Ang=  90.00 deg.
 Initial guess orbital symmetries:
 Alpha Orbitals:
       Occupied  (A') (A') (A') (A') (A') (A') (A') (A') (A') (A')
                 (A') (A') (A') (A') (A') (A") (A") (A') (A') (A")
                 (A') (A') (A') (A') (A') (A') (A') (A') (A') (A')
                 (A') (A') (A') (A") (A') (A') (A") (A") (A') (A')
                 (A") (A') (A') (A") (A")
       Virtual   (A") (A") (A') (A') (A') (A') (A') (A') (A") (A')
                 (A') (A') (A") (A") (A') (A") (A') (A') (A") (A')
                 (A") (A') (A') (A') (A') (A") (A') (A") (A") (A')
                 (A') (A') (A') (A') (A') (A") (A') (A') (A') (A')
                 (A') (A') (A') (A') (A') (A') (A') (A') (A') (A')
                 (A') (A") (A') (A') (A') (A") (A') (A") (A') (A')
                 (A') (A") (A') (A") (A') (A") (A") (A") (A') (A')
                 (A') (A") (A') (A') (A') (A') (A") (A') (A') (A')
                 (A") (A') (A') (A') (A') (A") (A") (A") (A') (A')
                 (A') (A") (A') (A') (A') (A') (A") (A') (A') (A')
                 (A") (A") (A') (A') (A') (A') (A") (A') (A") (A")
                 (A') (A') (A') (A') (A') (A") (A") (A') (A') (A')
                 (A") (A') (A') (A") (A') (A") (A') (A") (A') (A')
                 (A") (A') (A") (A') (A') (A") (A') (A") (A") (A')
                 (A') (A') (A') (A') (A') (A') (A') (A") (A') (A')
                 (A') (A') (A") (A") (A") (A") (A') (A") (A') (A')
                 (A') (A') (A') (A') (A') (A') (A') (A') (A') (A')
                 (A') (A') (A') (A') (A') (A') (A') (A') (A') (A")
                 (A") (A") (A') (A') (A') (A') (A') (A') (A') (A')
                 (A')
 Beta  Orbitals:
       Occupied  (A') (A') (A') (A') (A') (A') (A') (A') (A') (A')
                 (A') (A') (A') (A') (A') (A") (A") (A') (A') (A")
                 (A') (A') (A') (A') (A') (A') (A') (A') (A') (A')
                 (A') (A') (A') (A") (A') (A') (A") (A") (A') (A')
                 (A") (A') (A") (A")
       Virtual   (A') (A") (A") (A') (A') (A') (A') (A') (A') (A")
                 (A') (A") (A') (A") (A') (A') (A") (A') (A') (A")
                 (A') (A') (A") (A') (A') (A') (A") (A') (A') (A")
                 (A') (A") (A') (A') (A') (A') (A") (A') (A') (A')
                 (A') (A') (A') (A') (A') (A') (A') (A') (A') (A')
                 (A') (A') (A") (A') (A') (A') (A") (A') (A") (A')
                 (A') (A') (A") (A') (A') (A") (A") (A") (A') (A")
                 (A') (A') (A") (A') (A') (A') (A') (A') (A") (A')
                 (A') (A") (A') (A') (A') (A') (A") (A") (A") (A')
                 (A') (A') (A") (A') (A') (A') (A') (A") (A') (A')
                 (A') (A") (A") (A') (A') (A') (A') (A") (A') (A")
                 (A") (A') (A') (A') (A') (A') (A") (A") (A') (A')
                 (A') (A") (A') (A') (A") (A') (A') (A") (A") (A')
                 (A') (A") (A') (A") (A') (A') (A") (A') (A") (A")
                 (A') (A') (A') (A') (A') (A') (A') (A') (A") (A')
                 (A') (A') (A') (A") (A") (A") (A") (A') (A") (A')
                 (A') (A') (A') (A') (A') (A') (A') (A') (A') (A')
                 (A') (A') (A') (A') (A') (A') (A') (A') (A') (A')
                 (A") (A") (A") (A') (A') (A') (A') (A') (A') (A')
                 (A') (A')
 Initial guess <Sx>= 0.0000 <Sy>= 0.0000 <Sz>= 0.5000 <S**2>= 0.7626 S= 0.5063
 ExpMin= 3.60D-02 ExpMax= 1.06D+05 ExpMxC= 3.62D+03 IAcc=3 IRadAn=         5 AccDes= 0.00D+00
 Harris functional with IExCor= 1009 and IRadAn=       5 diagonalized for initial guess.
 HarFok:  IExCor= 1009 AccDes= 0.00D+00 IRadAn=         5 IDoV= 1 UseB2=F ITyADJ=14
 ICtDFT=  3500011 ScaDFX=  1.000000  1.000000  1.000000  1.000000
 FoFCou: FMM=F IPFlag=           0 FMFlag=      100000 FMFlg1=           0
         NFxFlg=           0 DoJE=T BraDBF=F KetDBF=T FulRan=T
         wScrn=  0.000000 ICntrl=       500 IOpCl=  0 I1Cent=   200000004 NGrid=           0
         NMat0=    1 NMatS0=      1 NMatT0=    0 NMatD0=    1 NMtDS0=    0 NMtDT0=    0
 Petite list used in FoFCou.
 Keep R1 and R2 ints in memory in symmetry-blocked form, NReq=617299900.
 Requested convergence on RMS density matrix=1.00D-08 within 128 cycles.
 Requested convergence on MAX density matrix=1.00D-06.
 Requested convergence on             energy=1.00D-06.
 No special actions if energy rises.
 SCF Done:  E(UM062X) =  -1610.30462646     A.U. after   20 cycles
            NFock= 20  Conv=0.53D-08     -V/T= 2.0023
 <Sx>= 0.0000 <Sy>= 0.0000 <Sz>= 0.5000 <S**2>= 0.7627 S= 0.5063
 <L.S>=  0.00000000000    
 Annihilation of the first spin contaminant:
 S**2 before annihilation     0.7627,   after     0.7501
 Calling FoFJK, ICntrl=      2127 FMM=F ISym2X=1 I1Cent= 0 IOpClX= 1 NMat=1 NMatS=1 NMatT=0.
 ***** Axes restored to original set *****
 -------------------------------------------------------------------
 Center     Atomic                   Forces (Hartrees/Bohr)
 Number     Number              X              Y              Z
 -------------------------------------------------------------------
      1        6          -0.000986252    0.000533674   -0.000000000
      2        6          -0.000356938   -0.001423091   -0.000000000
      3        6           0.000466597    0.000375622    0.000000000
      4        6           0.000014255   -0.000007644    0.000000000
      5        6          -0.000059564   -0.000594368   -0.000000000
      6        6           0.000996888    0.001077326    0.000000000
      7       17          -0.000675070   -0.000462191   -0.000000000
      8       17           0.000450894   -0.000244142   -0.000000000
      9       17           0.000017881    0.000817587    0.000000000
     10        1           0.000092564    0.000014112    0.000000000
     11        1           0.000038745   -0.000086885   -0.000000000
 -------------------------------------------------------------------
 Cartesian Forces:  Max     0.001423091 RMS     0.000489255

 GradGradGradGradGradGradGradGradGradGradGradGradGradGradGradGradGradGrad
 Berny optimization.
 Using GEDIIS/GDIIS optimizer.
 FormGI is forming the generalized inverse of G from B-inverse, IUseBI=4.
 Internal  Forces:  Max     0.000817744 RMS     0.000242398
 Search for a local minimum.
 Step number   3 out of a maximum of   57
 All quantities printed in internal units (Hartrees-Bohrs-Radians)
 Mixed Optimization -- En-DIIS/RFO-DIIS
 Update second derivatives using D2CorX and points    1    2    3
 DE= -2.61D-04 DEPred=-2.42D-04 R= 1.08D+00
 TightC=F SS=  1.41D+00  RLast= 4.45D-02 DXNew= 6.9525D-01 1.3357D-01
 Trust test= 1.08D+00 RLast= 4.45D-02 DXMaxT set to 4.13D-01
 ITU=  1  1  0
 Use linear search instead of GDIIS.
     Eigenvalues ---    0.01886   0.01893   0.01898   0.01900   0.01968
     Eigenvalues ---    0.02092   0.02142   0.02396   0.15795   0.16000
     Eigenvalues ---    0.20826   0.23491   0.24080   0.25000   0.25000
     Eigenvalues ---    0.25093   0.30589   0.33961   0.35287   0.37227
     Eigenvalues ---    0.37805   0.40275   0.40912   0.43237   0.43904
     Eigenvalues ---    0.50719   0.51104
 RFO step:  Lambda=-7.26881943D-06 EMin= 1.88639701D-02
 Quartic linear search produced a step of  0.07657.
 Iteration  1 RMS(Cart)=  0.00063550 RMS(Int)=  0.00000049
 Iteration  2 RMS(Cart)=  0.00000047 RMS(Int)=  0.00000033
 ClnCor:  largest displacement from symmetrization is 2.04D-10 for atom     8.
 Variable       Old X    -DE/DX   Delta X   Delta X   Delta X     New X
                                 (Linear)    (Quad)   (Total)
    R1        2.64666  -0.00012  -0.00045  -0.00012  -0.00058   2.64608
    R2        2.64666  -0.00012  -0.00045  -0.00012  -0.00058   2.64608
    R3        3.26066  -0.00051   0.00110  -0.00203  -0.00093   3.25972
    R4        2.63555   0.00032  -0.00053   0.00103   0.00050   2.63605
    R5        3.26730   0.00082   0.00153   0.00150   0.00303   3.27033
    R6        2.58627   0.00021   0.00049   0.00009   0.00058   2.58685
    R7        2.04519   0.00009   0.00014   0.00002   0.00016   2.04535
    R8        2.58627   0.00021   0.00049   0.00009   0.00058   2.58685
    R9        2.63555   0.00032  -0.00053   0.00103   0.00050   2.63605
   R10        2.04519   0.00009   0.00014   0.00002   0.00016   2.04535
   R11        3.26730   0.00082   0.00153   0.00150   0.00303   3.27033
    A1        2.08176  -0.00038  -0.00059  -0.00140  -0.00199   2.07976
    A2        2.10071   0.00019   0.00030   0.00070   0.00100   2.10171
    A3        2.10071   0.00019   0.00030   0.00070   0.00100   2.10171
    A4        2.10863   0.00040   0.00050   0.00131   0.00181   2.11044
    A5        2.10655  -0.00016  -0.00004  -0.00065  -0.00068   2.10587
    A6        2.06801  -0.00024  -0.00046  -0.00066  -0.00112   2.06688
    A7        2.03401  -0.00020   0.00039  -0.00103  -0.00064   2.03337
    A8        2.09678   0.00014  -0.00067   0.00104   0.00037   2.09715
    A9        2.15240   0.00006   0.00028  -0.00002   0.00026   2.15266
   A10        2.19934  -0.00001  -0.00119   0.00084  -0.00035   2.19899
   A11        2.03401  -0.00020   0.00039  -0.00103  -0.00064   2.03337
   A12        2.15239   0.00006   0.00028  -0.00002   0.00026   2.15266
   A13        2.09678   0.00014  -0.00067   0.00104   0.00037   2.09715
   A14        2.10863   0.00040   0.00050   0.00131   0.00181   2.11044
   A15        2.10655  -0.00016  -0.00004  -0.00065  -0.00068   2.10587
   A16        2.06801  -0.00024  -0.00046  -0.00066  -0.00112   2.06688
    D1        0.00000  -0.00000   0.00000   0.00000   0.00000   0.00000
    D2        3.14159  -0.00000   0.00000   0.00000   0.00000   3.14159
    D3        3.14159   0.00000   0.00000   0.00000   0.00000   3.14159
    D4       -0.00000   0.00000   0.00000   0.00000   0.00000   0.00000
    D5        0.00000  -0.00000   0.00000   0.00000   0.00000   0.00000
    D6        3.14159   0.00000   0.00000   0.00000   0.00000   3.14159
    D7        3.14159  -0.00000   0.00000  -0.00000   0.00000   3.14159
    D8        0.00000   0.00000   0.00000  -0.00000  -0.00000   0.00000
    D9       -0.00000  -0.00000   0.00000  -0.00000   0.00000   0.00000
[...]
      7       17          -0.000138152   -0.000102177   -0.000000000
      8       17           0.000361361   -0.000195552   -0.000000000
      9       17           0.000009975    0.000171363   -0.000000000
     10        1           0.000006029   -0.000014251   -0.000000000
     11        1           0.000015221    0.000002516   -0.000000000
 -------------------------------------------------------------------
 Cartesian Forces:  Max     0.000613503 RMS     0.000188763
 FormGI is forming the generalized inverse of G from B-inverse, IUseBI=4.

 GradGradGradGradGradGradGradGradGradGradGradGradGradGradGradGradGradGrad
 Berny optimization.
 Internal  Forces:  Max     0.000410880 RMS     0.000087843
 Search for a local minimum.
 Step number   1 out of a maximum of    2
 All quantities printed in internal units (Hartrees-Bohrs-Radians)
 Second derivative matrix not updated -- analytic derivatives used.
 ITU=  0
     Eigenvalues ---    0.01558   0.01705   0.01932   0.02616   0.02730
     Eigenvalues ---    0.02823   0.03272   0.03361   0.10549   0.11044
     Eigenvalues ---    0.15618   0.16287   0.18343   0.18633   0.22629
     Eigenvalues ---    0.23076   0.26015   0.27047   0.30222   0.35398
     Eigenvalues ---    0.36759   0.36828   0.45945   0.45967   0.47695
     Eigenvalues ---    0.50932   0.52519
 Angle between quadratic step and forces=  13.58 degrees.
 Linear search not attempted -- first point.
 Iteration  1 RMS(Cart)=  0.00029188 RMS(Int)=  0.00000010
 Iteration  2 RMS(Cart)=  0.00000014 RMS(Int)=  0.00000002
 ClnCor:  largest displacement from symmetrization is 3.11D-10 for atom     8.
 Variable       Old X    -DE/DX   Delta X   Delta X   Delta X     New X
                                 (Linear)    (Quad)   (Total)
    R1        2.64608   0.00005   0.00000   0.00017   0.00017   2.64626
    R2        2.64608   0.00005   0.00000   0.00017   0.00017   2.64626
    R3        3.25972  -0.00041   0.00000  -0.00190  -0.00190   3.25782
    R4        2.63605  -0.00004   0.00000  -0.00016  -0.00016   2.63589
    R5        3.27033   0.00017   0.00000   0.00097   0.00097   3.27130
    R6        2.58685  -0.00001   0.00000  -0.00001  -0.00001   2.58684
    R7        2.04535  -0.00000   0.00000  -0.00005  -0.00005   2.04530
    R8        2.58685  -0.00001   0.00000  -0.00001  -0.00001   2.58684
    R9        2.63605  -0.00004   0.00000  -0.00016  -0.00016   2.63589
   R10        2.04535  -0.00000   0.00000  -0.00005  -0.00005   2.04530
   R11        3.27033   0.00017   0.00000   0.00097   0.00097   3.27130
    A1        2.07976  -0.00014   0.00000  -0.00110  -0.00110   2.07867
    A2        2.10171   0.00007   0.00000   0.00055   0.00055   2.10226
    A3        2.10171   0.00007   0.00000   0.00055   0.00055   2.10226
    A4        2.11044   0.00011   0.00000   0.00091   0.00091   2.11135
    A5        2.10587  -0.00004   0.00000  -0.00044  -0.00044   2.10542
    A6        2.06688  -0.00008   0.00000  -0.00047  -0.00047   2.06641
    A7        2.03337  -0.00011   0.00000  -0.00069  -0.00069   2.03268
    A8        2.09715   0.00007   0.00000   0.00048   0.00048   2.09764
    A9        2.15266   0.00004   0.00000   0.00021   0.00021   2.15287
   A10        2.19899   0.00014   0.00000   0.00065   0.00065   2.19964
   A11        2.03337  -0.00011   0.00000  -0.00069  -0.00069   2.03268
   A12        2.15266   0.00004   0.00000   0.00021   0.00021   2.15287
   A13        2.09715   0.00007   0.00000   0.00048   0.00048   2.09764
   A14        2.11044   0.00011   0.00000   0.00091   0.00091   2.11135
   A15        2.10587  -0.00004   0.00000  -0.00044  -0.00044   2.10542
   A16        2.06688  -0.00008   0.00000  -0.00047  -0.00047   2.06641
    D1        0.00000   0.00000   0.00000  -0.00000   0.00000   0.00000
    D2        3.14159  -0.00000   0.00000  -0.00000   0.00000   3.14159
    D3        3.14159   0.00000   0.00000  -0.00000   0.00000   3.14159
    D4        0.00000   0.00000   0.00000  -0.00000   0.00000   0.00000
    D5        0.00000   0.00000   0.00000   0.00000   0.00000   0.00000
    D6        3.14159   0.00000   0.00000   0.00000   0.00000   3.14159
    D7        3.14159   0.00000   0.00000   0.00000   0.00000   3.14159
    D8        0.00000  -0.00000   0.00000   0.00000   0.00000   0.00000
    D9        0.00000  -0.00000   0.00000   0.00000   0.00000   0.00000
   D10        3.14159  -0.00000   0.00000   0.00000   0.00000   3.14159
   D11        3.14159  -0.00000   0.00000   0.00000   0.00000   3.14159
   D12        0.00000  -0.00000   0.00000   0.00000   0.00000   0.00000
   D13        0.00000  -0.00000   0.00000   0.00000   0.00000   0.00000
   D14        3.14159   0.00000   0.00000   0.00000   0.00000   3.14159
   D15        0.00000   0.00000   0.00000  -0.00000   0.00000   0.00000
   D16        3.14159  -0.00000   0.00000  -0.00000   0.00000   3.14159
   D17        0.00000   0.00000   0.00000  -0.00000   0.00000   0.00000
   D18        3.14159   0.00000   0.00000  -0.00000   0.00000   3.14159
   D19        3.14159  -0.00000   0.00000  -0.00000   0.00000   3.14159
   D20        0.00000  -0.00000   0.00000  -0.00000   0.00000   0.00000
         Item               Value     Threshold  Converged?
 Maximum Force            0.000411     0.000450     YES
 RMS     Force            0.000088     0.000300     YES
 Maximum Displacement     0.000992     0.001800     YES
 RMS     Displacement     0.000292     0.001200     YES
 Predicted change in Energy=-1.007900D-06
 Optimization completed.
    -- Stationary point found.
                           ----------------------------
                           !   Optimized Parameters   !
                           ! (Angstroms and Degrees)  !
 --------------------------                            --------------------------
 ! Name  Definition              Value          Derivative Info.                !
 --------------------------------------------------------------------------------
 ! R1    R(1,2)                  1.4002         -DE/DX =    0.0001              !
 ! R2    R(1,6)                  1.4002         -DE/DX =    0.0001              !
 ! R3    R(1,8)                  1.725          -DE/DX =   -0.0004              !
 ! R4    R(2,3)                  1.3949         -DE/DX =    0.0                 !
 ! R5    R(2,9)                  1.7306         -DE/DX =    0.0002              !
 ! R6    R(3,4)                  1.3689         -DE/DX =    0.0                 !
 ! R7    R(3,10)                 1.0824         -DE/DX =    0.0                 !
 ! R8    R(4,5)                  1.3689         -DE/DX =    0.0                 !
 ! R9    R(5,6)                  1.3949         -DE/DX =    0.0                 !
 ! R10   R(5,11)                 1.0824         -DE/DX =    0.0                 !
 ! R11   R(6,7)                  1.7306         -DE/DX =    0.0002              !
 ! A1    A(2,1,6)              119.1617         -DE/DX =   -0.0001              !
 ! A2    A(2,1,8)              120.4192         -DE/DX =    0.0001              !
 ! A3    A(6,1,8)              120.4192         -DE/DX =    0.0001              !
 ! A4    A(1,2,3)              120.919          -DE/DX =    0.0001              !
 ! A5    A(1,2,9)              120.6574         -DE/DX =    0.0                 !
 ! A6    A(3,2,9)              118.4236         -DE/DX =   -0.0001              !
 ! A7    A(2,3,4)              116.5037         -DE/DX =   -0.0001              !
 ! A8    A(2,3,10)             120.158          -DE/DX =    0.0001              !
 ! A9    A(4,3,10)             123.3382         -DE/DX =    0.0                 !
 ! A10   A(3,4,5)              125.9928         -DE/DX =    0.0001              !
 ! A11   A(4,5,6)              116.5037         -DE/DX =   -0.0001              !
 ! A12   A(4,5,11)             123.3382         -DE/DX =    0.0                 !
 ! A13   A(6,5,11)             120.158          -DE/DX =    0.0001              !
 ! A14   A(1,6,5)              120.919          -DE/DX =    0.0001              !
 ! A15   A(1,6,7)              120.6574         -DE/DX =    0.0                 !
 ! A16   A(5,6,7)              118.4236         -DE/DX =   -0.0001              !
 ! D1    D(6,1,2,3)              0.0            -DE/DX =    0.0                 !
 ! D2    D(6,1,2,9)            180.0            -DE/DX =    0.0                 !
 ! D3    D(8,1,2,3)            180.0            -DE/DX =    0.0                 !
 ! D4    D(8,1,2,9)              0.0            -DE/DX =    0.0                 !
 ! D5    D(2,1,6,5)              0.0            -DE/DX =    0.0                 !
 ! D6    D(2,1,6,7)            180.0            -DE/DX =    0.0                 !
 ! D7    D(8,1,6,5)            180.0            -DE/DX =    0.0                 !
 ! D8    D(8,1,6,7)              0.0            -DE/DX =    0.0                 !
 ! D9    D(1,2,3,4)              0.0            -DE/DX =    0.0                 !
 ! D10   D(1,2,3,10)           180.0            -DE/DX =    0.0                 !
 ! D11   D(9,2,3,4)            180.0            -DE/DX =    0.0                 !
 ! D12   D(9,2,3,10)             0.0            -DE/DX =    0.0                 !
 ! D13   D(2,3,4,5)              0.0            -DE/DX =    0.0                 !
 ! D14   D(10,3,4,5)           180.0            -DE/DX =    0.0                 !
 ! D15   D(3,4,5,6)              0.0            -DE/DX =    0.0                 !
 ! D16   D(3,4,5,11)           180.0            -DE/DX =    0.0                 !
 ! D17   D(4,5,6,1)              0.0            -DE/DX =    0.0                 !
 ! D18   D(4,5,6,7)            180.0            -DE/DX =    0.0                 !
 ! D19   D(11,5,6,1)           180.0            -DE/DX =    0.0                 !
 ! D20   D(11,5,6,7)             0.0            -DE/DX =    0.0                 !
 --------------------------------------------------------------------------------
 GradGradGradGradGradGradGradGradGradGradGradGradGradGradGradGradGradGrad


 ----------------------------------------------------------------------

 Electric dipole moment (input orientation):
 (Debye = 10**-18 statcoulomb cm , SI units = C m)
                  (au)            (Debye)         (10**-30 SI)
   Tot        0.704009D+00      0.178941D+01      0.596883D+01
   x          0.619126D+00      0.157366D+01      0.524917D+01
   y         -0.335129D+00     -0.851814D+00     -0.284134D+01
   z          0.000000D+00      0.000000D+00      0.000000D+00

 Dipole polarizability, Alpha (input orientation).
 (esu units = cm**3 , SI units = C**2 m**2 J**-1)
 Alpha(0;0):
               (au)            (10**-24 esu)      (10**-40 SI)
   iso        0.100024D+03      0.148220D+02      0.164917D+02
   aniso      0.671708D+02      0.995368D+01      0.110750D+02
   xx         0.118199D+03      0.175153D+02      0.194884D+02
   yx         0.588629D+01      0.872259D+00      0.970519D+00
   yy         0.125887D+03      0.186545D+02      0.207560D+02
   zx         0.000000D+00      0.000000D+00      0.000000D+00
   zy         0.000000D+00      0.000000D+00      0.000000D+00
   zz         0.559851D+02      0.829614D+01      0.923070D+01

 ----------------------------------------------------------------------

 Dipole orientation:
     6         -1.21650940         -2.24740814         -5.40211714
     6         -0.13028831         -0.24069769         -4.06234948
     6         -0.11934000         -0.22047153         -1.42640015
     6         -1.21650762         -2.24740486         -0.25184608
     6         -2.31367609         -4.27433977         -1.42639690
     6         -2.30272958         -4.25411692         -4.06234637
    17         -3.66532159         -6.77140154         -5.64400797
    17         -1.21651079         -2.24741072         -8.66184071
    17          1.23230303          2.27658568         -5.64401510
     1          0.72675525          1.34262478         -0.41431123
     1         -3.15977033         -5.83743421         -0.41430550

 Electric dipole moment (dipole orientation):
 (Debye = 10**-18 statcoulomb cm , SI units = C m)
                  (au)            (Debye)         (10**-30 SI)
   Tot        0.704009D+00      0.178941D+01      0.596883D+01
   x          0.000000D+00      0.000000D+00      0.000000D+00
   y          0.000000D+00      0.000000D+00      0.000000D+00
   z          0.704009D+00      0.178941D+01      0.596883D+01

 Dipole polarizability, Alpha (dipole orientation).
 (esu units = cm**3 , SI units = C**2 m**2 J**-1)
 Alpha(0;0):
               (au)            (10**-24 esu)      (10**-40 SI)
   iso        0.100024D+03      0.148220D+02      0.164917D+02
   aniso      0.671708D+02      0.995368D+01      0.110750D+02
   xx         0.725472D+02      0.107504D+02      0.119614D+02
   yx         0.305972D+02      0.453404D+01      0.504480D+01
   yy         0.112511D+03      0.166724D+02      0.185506D+02
   zx         0.000000D+00      0.000000D+00      0.000000D+00
   zy         0.000000D+00      0.000000D+00      0.000000D+00
   zz         0.115013D+03      0.170431D+02      0.189630D+02

 ----------------------------------------------------------------------
 1\1\GINC-SH03-01N03\Freq\UM062X\6-311++G(d,p)\C6H2Cl3(2)\JLAPIER\09-De
 c-2025\0\\#N Geom=AllCheck Guess=TCheck SCRF=Check GenChk UM062X/6-311
 ++G(d,p) Freq\\Neutral Radical (removed 5) 123_\\0,2\C,-3.1577528727,0
 .1715389653,0.\C,-1.9594566505,0.8959512694,0.\C,-0.7269612778,0.24264
 7717,0.\C,-0.760950678,-1.125834341,0.\C,-1.888152415,-1.9025677888,0.
 \C,-3.109061614,-1.2278595069,0.\Cl,-4.5661781375,-2.1615219174,0.\Cl,
 -4.674743582,0.9926757464,0.\Cl,-1.9744701169,2.6264685171,0.\H,0.1917
 727219,0.8148531852,0.\H,-1.8648853775,-2.9846718462,0.\\Version=ES64L
 -G16RevB.01\State=2-A'\HF=-1610.3046327\S2=0.762703\S2-1=0.\S2A=0.7500
 75\RMSD=7.853e-09\RMSF=1.888e-04\ZeroPoint=0.0593669\Thermal=0.0671292
 \Dipole=0.6191257,-0.3351292,0.\DipoleDeriv=0.544058,-0.5626857,0.,-0.
 562686,-0.1908851,0.,0.,0.,0.0398159,0.0505718,0.07015,0.,0.1561492,1.
 1209874,0.,0.,0.,-0.0341398,-0.114432,0.1132848,0.,-0.0024674,-0.27930
 61,0.,0.,0.,-0.078667,-0.0421819,0.0867724,0.,0.0867722,0.0711544,0.,0
 .,0.,-0.0508151,-0.2807451,-0.1110812,0.,0.0046713,-0.1129929,0.,0.,0.
 ,-0.078667,0.6973503,0.5785387,0.,0.4925397,0.4742086,0.,0.,0.,-0.0341
 398,-0.5134187,-0.3710107,0.,-0.3409572,-0.2986931,0.,0.,0.,-0.0311696
 ,-0.4781158,0.2655717,0.,0.2655717,-0.1312434,0.,0.,0.,-0.021072,-0.03
 6945,-0.0297881,0.,-0.0598416,-0.7751669,0.,0.,0.,-0.0311697,0.0760132
 ,-0.0258104,0.,-0.0281992,0.0718845,0.,0.,0.,0.1600121,0.0978451,-0.01
 39414,0.,-0.0115527,0.0500526,0.,0.,0.,0.1600121\Polar=118.1988286,5.8
 862949,125.887103,0.,0.,55.9851269\Quadrupole=1.5047989,0.8963426,-2.4
 011415,-0.4658429,0.,0.\PG=CS [SG(C6H2Cl3)]\NImag=0\\0.57066807,0.0224
 7028,0.60001726,0.,0.,0.11565634,-0.24754504,-0.04927270,0.,0.62637197
 ,-0.12662178,-0.15252017,0.,-0.00379838,0.53059013,0.,0.,-0.06174280,0
 .,0.,0.11803472,-0.05347158,-0.03319328,0.,-0.28360264,0.12040211,0.,0
 .68547339,0.03091257,0.06925128,0.,0.03349180,-0.13962172,0.,0.0789483
 1,0.70071925,0.,0.,0.00841442,0.,0.,-0.06157668,0.,0.,0.11929752,-0.02
 170954,-0.03546953,0.,0.04075746,0.02337792,0.,-0.10152843,0.00479123,
 0.,0.42451330,-0.03546954,-0.06803748,0.,0.10024708,-0.03640277,0.,-0.
 03477715,-0.36790607,0.,0.14618212,0.61544683,0.,0.,-0.00493131,0.,0.,
 0.01368921,0.,0.,-0.05137222,0.,0.,0.07433862,0.03360354,0.08777842,0.
 ,-0.08305180,-0.00378096,0.,0.04109656,-0.07399908,0.,-0.27453605,-0.1
 0819425,0.,0.62387383,0.02367258,-0.01782385,0.,-0.00303916,0.00319312
 ,0.,-0.03315783,-0.02888405,0.,-0.14776264,-0.19489832,0.,0.03871978,0
 .76231926,0.,0.,0.00841442,0.,0.,-0.00219363,0.,0.,0.00670063,0.,0.,-0
 .05137224,0.,0.,0.11929746,-0.10040429,-0.03052908,0.,0.04410321,-0.02
 137429,0.,-0.01947019,0.03774206,0.,-0.06993026,-0.04890853,0.,-0.2531
 2370,0.14030676,0.,0.56270534,0.04682001,-0.29966099,0.,-0.09409835,-0
 .03130812,0.,0.03848387,-0.06038849,0.,0.02796062,0.07428495,0.,0.0533
 9645,-0.17010057,0.,-0.04537684,0.59425728,0.,0.,-0.06174280,0.,0.,0.0
 0521545,0.,0.,-0.00219363,0.,0.,0.01368920,0.,0.,-0.06157669,0.,0.,0.1
 1803469,-0.01491377,-0.00875487,0.,0.00098576,0.00105817,0.,-0.0000655
 0,-0.00275325,0.,-0.00320130,0.00587457,0.,-0.04179418,-0.02471890,0.,
 -0.14215771,-0.06810389,0.,0.19712869,-0.03251682,-0.02120149,0.,0.004
 70752,-0.00188947,0.,-0.00147125,-0.00037032,0.,0.00092586,0.00086398,
 0.,-0.00047509,0.00384277,0.,-0.06281557,-0.07995229,0.,0.09558288,0.1
 0749058,0.,0.,0.00351041,0.,0.,0.00405267,0.,0.,-0.00092162,0.,0.,0.00
 439352,0.,0.,0.00536325,0.,0.,-0.02281835,0.,0.,0.01046506,-0.16027460
 ,0.06588924,0.,-0.03848048,0.02067153,0.,-0.00082614,-0.00530684,0.,-0
 .00116841,0.00076202,0.,0.00246044,0.00044752,0.,-0.01884717,0.0105693
 4,0.,0.00320310,-0.00353370,0.,0.22070207,0.06588923,-0.07421441,0.,-0
 .00225255,0.00155522,0.,-0.00169884,-0.00071302,0.,0.00076202,-0.00017
 310,0.,-0.00316049,-0.00399961,0.,0.03349342,-0.01807814,0.,0.00391514
 ,-0.00846357,0.,-0.08920890,0.10418334,0.,0.,-0.02192529,0.,0.,0.00307
 255,0.,0.,0.00372658,0.,0.,-0.00062640,0.,0.,0.00372658,0.,0.,0.003072
 56,0.,0.,-0.00110228,0.,0.,0.01097442,-0.00042690,-0.02305592,0.,-0.03
 861412,0.00480527,0.,0.00173227,0.02795056,0.,-0.00346478,0.00075379,0
 .,0.00165484,-0.00034775,0.,-0.00366943,0.00166737,0.,0.00002816,-0.00
 126480,0.,-0.00515006,-0.00898885,0.,0.04677278,0.00070603,-0.03568831
 ,0.,-0.00048304,-0.18349537,0.,0.00370676,-0.03968367,0.,0.00570250,0.
 00112746,0.,-0.00162975,-0.00209066,0.,-0.00198198,0.00276572,0.,-0.00
 072261,-0.00126975,0.,-0.00154004,-0.00011039,0.,-0.00260952,0.2578459
 1,0.,0.,0.00351040,0.,0.,-0.02281838,0.,0.,0.00536325,0.,0.,0.00439352
 ,0.,0.,-0.00092162,0.,0.,0.00405267,0.,0.,0.00000515,0.,0.,-0.00110229
 ,0.,0.,0.01046511,-0.00203660,0.00285003,0.,-0.01922630,-0.01509015,0.
 ,-0.26544759,-0.12806316,0.,0.00566832,-0.00237647,0.,0.00122701,0.002
 29403,0.,-0.00026198,0.00073787,0.,0.00010024,0.00002997,0.,-0.0010183
 7,-0.00013396,0.,0.00098239,-0.00103588,0.,0.27972723,0.00223612,-0.00
 078727,0.,0.01469772,0.00945031,0.,-0.13619488,-0.13270275,0.,-0.02339
 575,-0.01268706,0.,-0.00037234,-0.00481761,0.,0.00128838,-0.00098720,0
 .,-0.00014813,0.00010097,0.,0.00111079,0.00021584,0.,0.00102423,0.0005
 5270,0.,0.14064093,0.14185988,0.,0.,0.00541811,0.,0.,0.00462245,0.,0.,
 -0.03293309,0.,0.,-0.00110095,0.,0.,0.00549484,0.,0.,-0.00035556,0.,0.
 ,-0.00024712,0.,0.,0.00009179,0.,0.,-0.00270068,0.,0.,0.02182363,-0.00
 348929,0.00128742,0.,-0.00169802,0.00035056,0.,-0.00389016,-0.00371420
 ,0.,0.00459969,-0.02409365,0.,-0.05141050,0.00358561,0.,0.00105619,0.0
 2794355,0.,0.00068650,0.00083100,0.,-0.00060037,0.00138378,0.,0.000154
 85,-0.00011247,0.,0.00028565,-0.00088708,0.,0.05430546,0.00190132,0.00
 066542,0.,-0.00019995,0.00044884,0.,-0.00104782,0.00029955,0.,-0.00307
 435,-0.01161842,0.,0.01171732,-0.34674049,0.,-0.00184434,-0.01083217,0
 .,-0.00122912,0.00084859,0.,0.00013902,-0.00020216,0.,0.00006563,0.000
 04636,0.,0.00014680,-0.00019781,0.,-0.00657451,0.36728229,0.,0.,0.0054
 1811,0.,0.,-0.00035556,0.,0.,0.00549484,0.,0.,-0.00110095,0.,0.,-0.032
 93300,0.,0.,0.00462245,0.,0.,-0.00270068,0.,0.,0.00009179,0.,0.,-0.000
 24712,0.,0.,-0.00011342,0.,0.,0.02182354\\0.00061350,-0.00033211,0.,-0
 .00007266,0.00040368,0.,-0.00013822,-0.00014696,0.,0.00018227,-0.00009
 860,0.,0.00004744,0.00019581,0.,-0.00037790,-0.00015992,0.,0.00013815,
 0.00010218,0.,-0.00036136,0.00019555,0.,-0.00000998,-0.00017136,0.,-0.
 00000603,0.00001425,0.,-0.00001522,-0.00000252,0.\\\@


 THE PROBLEM WITH THE LADDER OF SUCCESS IS YOU CAN'T
 CLIMB IT WHILE YOU'RE TWIDDLING YOUR THUMBS.
 Job cpu time:       0 days  0 hours 27 minutes 50.2 seconds.
 Elapsed time:       0 days  0 hours  6 minutes 59.9 seconds.
 File lengths (MBytes):  RWF=    172 Int=      0 D2E=      0 Chk=     34 Scr=      1
 Normal termination of Gaussian 16 at Tue Dec  9 13:31:47 2025.
