 Entering Gaussian System, Link 0=g16
 Initial command:
 /share/software/user/restricted/gaussian/g16.B01/l1.exe "/home/users/jlapier/Chloroaromatics/Gau-5277.inp" -scrdir="/home/users/jlapier/Chloroaromatics/"
 Entering Link 1 = /share/software/user/restricted/gaussian/g16.B01/l1.exe PID=      5278.
  
 Copyright (c) 1988-2017, Gaussian, Inc.  All Rights Reserved.
  
 This is part of the Gaussian(R) 16 program.  It is based on
 the Gaussian(R) 09 system (copyright 2009, Gaussian, Inc.),
 the Gaussian(R) 03 system (copyright 2003, Gaussian, Inc.),
 the Gaussian(R) 98 system (copyright 1998, Gaussian, Inc.),
 the Gaussian(R) 94 system (copyright 1995, Gaussian, Inc.),
 the Gaussian 92(TM) system (copyright 1992, Gaussian, Inc.),
 the Gaussian 90(TM) system (copyright 1990, Gaussian, Inc.),
 the Gaussian 88(TM) system (copyright 1988, Gaussian, Inc.),
 the Gaussian 86(TM) system (copyright 1986, Carnegie Mellon
 University), and the Gaussian 82(TM) system (copyright 1983,
 Carnegie Mellon University). Gaussian is a federally registered
 trademark of Gaussian, Inc.
  
 This software contains proprietary and confidential information,
 including trade secrets, belonging to Gaussian, Inc.
  
 This software is provided under written license and may be
 used, copied, transmitted, or stored only in accord with that
 written license.
  
 The following legend is applicable only to US Government
 contracts under FAR:
  
                    RESTRICTED RIGHTS LEGEND
  
 Use, reproduction and disclosure by the US Government is
 subject to restrictions as set forth in subparagraphs (a)
 and (c) of the Commercial Computer Software - Restricted
 Rights clause in FAR 52.227-19.
  
 Gaussian, Inc.
 340 Quinnipiac St., Bldg. 40, Wallingford CT 06492
  
  
 ---------------------------------------------------------------
 Warning -- This program may not be used in any manner that
 competes with the business of Gaussian, Inc. or will provide
 assistance to any competitor of Gaussian, Inc.  The licensee
 of this program is prohibited from giving any competitor of
 Gaussian, Inc. access to this program.  By using this program,
 the user acknowledges that Gaussian, Inc. is engaged in the
 business of creating and licensing software in the field of
 computational chemistry and represents and warrants to the
 licensee that it is not a competitor of Gaussian, Inc. and that
 it will not use this program in any manner prohibited above.
 ---------------------------------------------------------------
  

 Cite this work as:
 Gaussian 16, Revision B.01,
 M. J. Frisch, G. W. Trucks, H. B. Schlegel, G. E. Scuseria, 
 M. A. Robb, J. R. Cheeseman, G. Scalmani, V. Barone, 
 G. A. Petersson, H. Nakatsuji, X. Li, M. Caricato, A. V. Marenich, 
 J. Bloino, B. G. Janesko, R. Gomperts, B. Mennucci, H. P. Hratchian, 
 J. V. Ortiz, A. F. Izmaylov, J. L. Sonnenberg, D. Williams-Young, 
 F. Ding, F. Lipparini, F. Egidi, J. Goings, B. Peng, A. Petrone, 
 T. Henderson, D. Ranasinghe, V. G. Zakrzewski, J. Gao, N. Rega, 
 G. Zheng, W. Liang, M. Hada, M. Ehara, K. Toyota, R. Fukuda, 
 J. Hasegawa, M. Ishida, T. Nakajima, Y. Honda, O. Kitao, H. Nakai, 
 T. Vreven, K. Throssell, J. A. Montgomery, Jr., J. E. Peralta, 
 F. Ogliaro, M. J. Bearpark, J. J. Heyd, E. N. Brothers, K. N. Kudin, 
 V. N. Staroverov, T. A. Keith, R. Kobayashi, J. Normand, 
 K. Raghavachari, A. P. Rendell, J. C. Burant, S. S. Iyengar, 
 J. Tomasi, M. Cossi, J. M. Millam, M. Klene, C. Adamo, R. Cammi, 
 J. W. Ochterski, R. L. Martin, K. Morokuma, O. Farkas, 
 J. B. Foresman, and D. J. Fox, Gaussian, Inc., Wallingford CT, 2016.
 
 ******************************************
 Gaussian 16:  ES64L-G16RevB.01 20-Dec-2017
                 9-Dec-2025 
 ******************************************
 %mem=8GB
 %nprocshare=4
 Will use up to    4 processors via shared memory.
 %oldchk=geometry_chks/123ClBzAnionRadical.chk
 %chk=frequency_chks/123ClBzAnionRadical_Freq.chk
 Copying data from "geometry_chks/123ClBzAnionRadical.chk" to current chk file "frequency_chks/123ClBzAnionRadical_Freq.chk"
 IOpt=  2 FromEx=T IUOpen= 4 IOptOp= 5 NList=   0 IFRang= 0 IUIn= 4 IUOut= 2.
 -------------------------------------------------------
 # opt freq 6-311++g(d,p) guess=read geom=allcheck m062x
 -------------------------------------------------------
 1/18=20,19=15,26=3,29=7,38=1/1,3;
 2/9=110,12=2,40=1/2;
 3/5=4,6=6,7=1111,11=2,14=-4,25=1,30=1,71=1,74=-55,116=-2/1,2,3;
 4/5=1/1;
 5/5=2,38=6/2;
 6/7=2,8=2,9=2,10=2,28=1/1;
 7//1,2,3,16;
 1/18=20,19=15,26=3/3(2);
 2/9=110/2;
 99//99;
 2/9=110/2;
 3/5=4,6=6,7=1111,11=2,14=-2,25=1,30=1,71=1,74=-55/1,2,3;
 4/5=5,16=3,69=1/1;
 5/5=2,38=5/2;
 7//1,2,3,16;
 1/18=20,19=15,26=3/3(-5);
 2/9=110/2;
 6/7=2,8=2,9=2,10=2,19=2,28=1/1;
 99/9=1/99;
 Structure from the checkpoint file:  "frequency_chks/123ClBzAnionRadical_Freq.chk"
 ------------------------------------
 3-Chloro-Benzene Anion Radical (123)
 ------------------------------------
 Charge = -1 Multiplicity = 2
 Redundant internal coordinates found in file.  (old form).
 C,0,-3.1191861082,0.15067992,0.
 C,0,-1.9305565854,0.8881311945,0.
 C,0,-0.6983094715,0.2189153603,0.
 C,0,-0.6627367074,-1.1789797833,0.
 C,0,-1.8526006937,-1.9135597944,0.
 C,0,-3.0866975201,-1.2477549521,0.
 Cl,0,-4.5543952658,-2.2846520687,0.
 Cl,0,-4.6215713724,0.9639113426,0.
 Cl,0,-1.8649174639,2.6839551443,0.
 H,0,0.2363369263,0.7945978861,0.
 H,0,0.3034718257,-1.7019797548,0.
 H,0,-1.8235375676,-3.0110945018,0.
 Recover connectivity data from disk.

 GradGradGradGradGradGradGradGradGradGradGradGradGradGradGradGradGradGrad
 Berny optimization.
 Initialization pass.
                           ----------------------------
                           !    Initial Parameters    !
                           ! (Angstroms and Degrees)  !
 --------------------------                            --------------------------
 ! Name  Definition              Value          Derivative Info.                !
 --------------------------------------------------------------------------------
 ! R1    R(1,2)                  1.3988         estimate D2E/DX2                !
 ! R2    R(1,6)                  1.3988         estimate D2E/DX2                !
 ! R3    R(1,8)                  1.7084         estimate D2E/DX2                !
 ! R4    R(2,3)                  1.4022         estimate D2E/DX2                !
 ! R5    R(2,9)                  1.797          estimate D2E/DX2                !
 ! R6    R(3,4)                  1.3983         estimate D2E/DX2                !
 ! R7    R(3,10)                 1.0977         estimate D2E/DX2                !
 ! R8    R(4,5)                  1.3984         estimate D2E/DX2                !
 ! R9    R(4,11)                 1.0987         estimate D2E/DX2                !
 ! R10   R(5,6)                  1.4022         estimate D2E/DX2                !
 ! R11   R(5,12)                 1.0979         estimate D2E/DX2                !
 ! R12   R(6,7)                  1.797          estimate D2E/DX2                !
 ! A1    A(2,1,6)              120.4855         estimate D2E/DX2                !
 ! A2    A(2,1,8)              119.7573         estimate D2E/DX2                !
 ! A3    A(6,1,8)              119.7573         estimate D2E/DX2                !
 ! A4    A(1,2,3)              119.6779         estimate D2E/DX2                !
 ! A5    A(1,2,9)              123.9096         estimate D2E/DX2                !
 ! A6    A(3,2,9)              116.4125         estimate D2E/DX2                !
 ! A7    A(2,3,4)              119.9635         estimate D2E/DX2                !
 ! A8    A(2,3,10)             119.8638         estimate D2E/DX2                !
 ! A9    A(4,3,10)             120.1727         estimate D2E/DX2                !
 ! A10   A(3,4,5)              120.232          estimate D2E/DX2                !
 ! A11   A(3,4,11)             119.884          estimate D2E/DX2                !
 ! A12   A(5,4,11)             119.884          estimate D2E/DX2                !
 ! A13   A(4,5,6)              119.9631         estimate D2E/DX2                !
 ! A14   A(4,5,12)             120.1729         estimate D2E/DX2                !
 ! A15   A(6,5,12)             119.8641         estimate D2E/DX2                !
 ! A16   A(1,6,5)              119.6781         estimate D2E/DX2                !
 ! A17   A(1,6,7)              123.9095         estimate D2E/DX2                !
 ! A18   A(5,6,7)              116.4124         estimate D2E/DX2                !
 ! D1    D(6,1,2,3)              0.0            estimate D2E/DX2                !
 ! D2    D(6,1,2,9)            180.0            estimate D2E/DX2                !
 ! D3    D(8,1,2,3)            180.0            estimate D2E/DX2                !
 ! D4    D(8,1,2,9)              0.0            estimate D2E/DX2                !
 ! D5    D(2,1,6,5)              0.0            estimate D2E/DX2                !
 ! D6    D(2,1,6,7)            180.0            estimate D2E/DX2                !
 ! D7    D(8,1,6,5)            180.0            estimate D2E/DX2                !
 ! D8    D(8,1,6,7)              0.0            estimate D2E/DX2                !
 ! D9    D(1,2,3,4)              0.0            estimate D2E/DX2                !
 ! D10   D(1,2,3,10)           180.0            estimate D2E/DX2                !
 ! D11   D(9,2,3,4)            180.0            estimate D2E/DX2                !
 ! D12   D(9,2,3,10)             0.0            estimate D2E/DX2                !
 ! D13   D(2,3,4,5)              0.0            estimate D2E/DX2                !
 ! D14   D(2,3,4,11)           180.0            estimate D2E/DX2                !
 ! D15   D(10,3,4,5)           180.0            estimate D2E/DX2                !
 ! D16   D(10,3,4,11)            0.0            estimate D2E/DX2                !
 ! D17   D(3,4,5,6)              0.0            estimate D2E/DX2                !
 ! D18   D(3,4,5,12)           180.0            estimate D2E/DX2                !
 ! D19   D(11,4,5,6)           180.0            estimate D2E/DX2                !
 ! D20   D(11,4,5,12)            0.0            estimate D2E/DX2                !
 ! D21   D(4,5,6,1)              0.0            estimate D2E/DX2                !
 ! D22   D(4,5,6,7)            180.0            estimate D2E/DX2                !
 ! D23   D(12,5,6,1)           180.0            estimate D2E/DX2                !
 ! D24   D(12,5,6,7)             0.0            estimate D2E/DX2                !
 --------------------------------------------------------------------------------
 Trust Radius=3.00D-01 FncErr=1.00D-07 GrdErr=1.00D-06 EigMax=2.50D+02 EigMin=1.00D-04
 Number of steps in this run=     64 maximum allowed number of steps=    100.
 GradGradGradGradGradGradGradGradGradGradGradGradGradGradGradGradGradGrad

                          Input orientation:                          
 ---------------------------------------------------------------------
 Center     Atomic      Atomic             Coordinates (Angstroms)
 Number     Number       Type             X           Y           Z
 ---------------------------------------------------------------------
      1          6           0       -3.119186    0.150680    0.000000
      2          6           0       -1.930557    0.888131   -0.000000
      3          6           0       -0.698309    0.218915   -0.000000
      4          6           0       -0.662737   -1.178980    0.000000
      5          6           0       -1.852601   -1.913560    0.000000
      6          6           0       -3.086698   -1.247755    0.000000
      7         17           0       -4.554395   -2.284652    0.000000
      8         17           0       -4.621571    0.963911    0.000000
      9         17           0       -1.864917    2.683955   -0.000000
     10          1           0        0.236337    0.794598   -0.000000
     11          1           0        0.303472   -1.701980    0.000000
     12          1           0       -1.823538   -3.011095    0.000000
 ---------------------------------------------------------------------
                    Distance matrix (angstroms):
                    1          2          3          4          5
     1  C    0.000000
     2  C    1.398812   0.000000
     3  C    2.421838   1.402242   0.000000
     4  C    2.793231   2.424936   1.398348   0.000000
     5  C    2.421843   2.802775   2.424838   1.398350   0.000000
     6  C    1.398812   2.428718   2.802770   2.424936   1.402245
     7  Cl   2.826777   4.117169   4.597526   4.045679   2.727160
     8  Cl   1.708364   2.692082   3.993370   4.501595   3.993374
     9  Cl   2.826778   1.797023   2.727159   4.045677   4.597531
    10  H    3.416748   2.168911   1.097713   2.168719   3.420202
    11  H    3.891906   3.420462   2.166427   1.098676   2.166429
    12  H    3.416946   3.900694   3.420395   2.168894   1.097919
                    6          7          8          9         10
     6  C    0.000000
     7  Cl   1.797023   0.000000
     8  Cl   2.692082   3.249258   0.000000
     9  Cl   4.117170   5.649810   3.249260   0.000000
    10  H    3.900482   5.694989   4.860858   2.825764   0.000000
    11  H    3.420463   4.892686   5.600270   4.892682   2.497480
    12  H    2.169087   2.825828   4.861035   5.695200   4.327398
                   11         12
    11  H    0.000000
    12  H    2.497589   0.000000
 Stoichiometry    C6H3Cl3(1-,2)
 Framework group  CS[SG(C6H3Cl3)]
 Deg. of freedom    21
 Full point group                 CS      NOp   2
 Largest Abelian subgroup         CS      NOp   2
 Largest concise Abelian subgroup C1      NOp   1
                         Standard orientation:                         
 ---------------------------------------------------------------------
 Center     Atomic      Atomic             Coordinates (Angstroms)
 Number     Number       Type             X           Y           Z
 ---------------------------------------------------------------------
      1          6           0       -0.000002   -0.298774    0.000000
      2          6           0       -1.214361    0.395493   -0.000000
      3          6           0       -1.212419    1.797734   -0.000000
      4          6           0       -0.000002    2.494457   -0.000000
      5          6           0        1.212419    1.797737    0.000000
      6          6           0        1.214357    0.395493    0.000000
      7         17           0        2.824902   -0.401650    0.000000
      8         17           0       -0.000002   -2.007138    0.000000
      9         17           0       -2.824907   -0.401646   -0.000000
     10          1           0       -2.163610    2.345648   -0.000000
     11          1           0       -0.000004    3.593132   -0.000000
     12          1           0        2.163789    2.345755    0.000000
 ---------------------------------------------------------------------
 Rotational constants (GHZ):           1.5192409           0.7918614           0.5205430
 Standard basis: 6-311++G(d,p) (5D, 7F)
 There are   189 symmetry adapted cartesian basis functions of A'  symmetry.
 There are    63 symmetry adapted cartesian basis functions of A"  symmetry.
 There are   180 symmetry adapted basis functions of A'  symmetry.
 There are    63 symmetry adapted basis functions of A"  symmetry.
   243 basis functions,   402 primitive gaussians,   252 cartesian basis functions
    46 alpha electrons       45 beta electrons
       nuclear repulsion energy       639.8986949273 Hartrees.
 NAtoms=   12 NActive=   12 NUniq=   12 SFac= 1.00D+00 NAtFMM=   60 NAOKFM=F Big=F
 Integral buffers will be    131072 words long.
 Raffenetti 2 integral format.
 Two-electron integral symmetry is turned on.
 One-electron integrals computed using PRISM.
 NBasis=   243 RedAO= T EigKep=  1.15D-06  NBF=   180    63
 NBsUse=   242 1.00D-06 EigRej=  8.26D-07 NBFU=   179    63
 Initial guess from the checkpoint file:  "frequency_chks/123ClBzAnionRadical_Freq.chk"
 B after Tr=    -0.000000    0.000000   -0.000000
         Rot=    1.000000   -0.000000   -0.000000    0.000000 Ang=   0.00 deg.
 Initial guess orbital symmetries:
 Alpha Orbitals:
       Occupied  (A') (A') (A') (A') (A') (A') (A') (A') (A') (A')
                 (A') (A') (A') (A") (A') (A') (A") (A") (A') (A")
                 (A') (A') (A") (A") (A') (A') (A") (A") (A') (A")
                 (A') (A') (A') (A') (A') (A') (A') (A') (A') (A')
                 (A') (A') (A') (A') (A') (A')
       Virtual   (A') (A') (A') (A') (A') (A') (A') (A') (A') (A')
                 (A') (A') (A') (A') (A') (A') (A') (A') (A') (A')
                 (A') (A') (A') (A') (A') (A') (A') (A') (A') (A')
                 (A') (A') (A') (A') (A') (A') (A') (A') (A') (A')
                 (A') (A') (A') (A') (A') (A') (A') (A') (A') (A')
                 (A') (A') (A') (A') (A') (A') (A') (A') (A') (A')
                 (A') (A') (A') (A') (A') (A') (A') (A') (A') (A')
                 (A') (A') (A') (A') (A') (A') (A') (A') (A') (A')
                 (A') (A') (A') (A') (A') (A') (A') (A') (A') (A')
                 (A') (A') (A') (A') (A') (A') (A') (A') (A') (A')
                 (A') (A') (A') (A') (A') (A') (A') (A') (A') (A')
                 (A') (A') (A') (A') (A') (A') (A') (A') (A') (A')
                 (A') (A') (A') (A') (A') (A') (A') (A') (A') (A')
                 (A') (A') (A') (A') (A') (A') (A') (A') (A') (A')
                 (A') (A') (A") (A") (A") (A") (A") (A") (A") (A")
                 (A") (A") (A") (A") (A") (A") (A") (A") (A") (A")
                 (A") (A") (A") (A") (A") (A") (A") (A") (A") (A")
                 (A") (A") (A") (A") (A") (A") (A") (A") (A") (A")
                 (A") (A") (A") (A") (A") (A") (A") (A") (A") (A")
                 (A") (A") (A") (A") (A") (A")
 Beta  Orbitals:
       Occupied  (A') (A') (A') (A') (A') (A') (A') (A') (A') (A')
                 (A') (A') (A") (A') (A') (A") (A') (A") (A') (A")
                 (A') (A') (A") (A") (A") (A") (A') (A') (A") (A')
                 (A') (A') (A') (A') (A') (A') (A') (A') (A') (A')
                 (A') (A') (A') (A') (A')
       Virtual   (A') (A') (A') (A') (A') (A') (A') (A') (A') (A')
                 (A') (A') (A') (A') (A') (A') (A') (A') (A') (A')
                 (A') (A') (A') (A') (A') (A') (A') (A') (A') (A')
                 (A') (A') (A') (A') (A') (A') (A') (A') (A') (A')
                 (A') (A') (A') (A') (A') (A') (A') (A') (A') (A')
                 (A') (A') (A') (A') (A') (A') (A') (A') (A') (A')
                 (A') (A') (A') (A') (A') (A') (A') (A') (A') (A')
                 (A') (A') (A') (A') (A') (A') (A') (A') (A') (A')
                 (A') (A') (A') (A') (A') (A') (A') (A') (A') (A')
                 (A') (A') (A') (A') (A') (A') (A') (A') (A') (A')
                 (A') (A') (A') (A') (A') (A') (A') (A') (A') (A')
                 (A') (A') (A') (A') (A') (A') (A') (A') (A') (A')
                 (A') (A') (A') (A') (A') (A') (A') (A') (A') (A')
                 (A') (A') (A') (A') (A') (A') (A') (A') (A') (A')
                 (A') (A') (A') (A") (A") (A") (A") (A") (A") (A")
                 (A") (A") (A") (A") (A") (A") (A") (A") (A") (A")
                 (A") (A") (A") (A") (A") (A") (A") (A") (A") (A")
                 (A") (A") (A") (A") (A") (A") (A") (A") (A") (A")
                 (A") (A") (A") (A") (A") (A") (A") (A") (A") (A")
                 (A") (A") (A") (A") (A") (A") (A")
 Initial guess <Sx>= 0.0000 <Sy>= 0.0000 <Sz>= 0.5000 <S**2>= 0.7500 S= 0.5000
 Keep R1 and R2 ints in memory in symmetry-blocked form, NReq=695666862.
 Requested convergence on RMS density matrix=1.00D-08 within 128 cycles.
 Requested convergence on MAX density matrix=1.00D-06.
 Requested convergence on             energy=1.00D-06.
 No special actions if energy rises.
 EnCoef did     4 forward-backward iterations
 EnCoef did     5 forward-backward iterations
 EnCoef did     6 forward-backward iterations
 EnCoef did     3 forward-backward iterations
 SCF Done:  E(UM062X) =  -1610.96558869     A.U. after   56 cycles
            NFock= 56  Conv=0.68D-08     -V/T= 2.0024
 <Sx>= 0.0000 <Sy>= 0.0000 <Sz>= 0.5000 <S**2>= 0.7508 S= 0.5004
 <L.S>=  0.00000000000    
 Annihilation of the first spin contaminant:
 S**2 before annihilation     0.7508,   after     0.7500

 **********************************************************************

            Population analysis using the SCF Density.

 **********************************************************************

 Orbital symmetries:
 Alpha Orbitals:
       Occupied  (A') (A') (A') (A') (A') (A') (A') (A') (A') (A')
                 (A') (A') (A') (A') (A') (A") (A') (A") (A") (A')
                 (A') (A') (A') (A') (A') (A') (A') (A') (A') (A')
                 (A') (A') (A') (A") (A') (A') (A') (A") (A") (A')
                 (A") (A') (A') (A") (A") (A')
       Virtual   (A') (A") (A') (A") (A') (A') (A') (A") (A') (A')
                 (A') (A") (A") (A') (A') (A") (A') (A') (A') (A')
                 (A") (A") (A') (A') (A') (A") (A') (A') (A") (A')
                 (A") (A') (A') (A') (A') (A") (A') (A') (A') (A')
                 (A') (A') (A') (A') (A') (A') (A') (A') (A') (A')
                 (A') (A") (A') (A') (A') (A") (A') (A") (A') (A')
                 (A') (A") (A') (A') (A") (A") (A") (A') (A") (A')
                 (A') (A") (A') (A') (A') (A') (A') (A") (A') (A')
                 (A') (A') (A") (A') (A') (A') (A") (A") (A") (A')
                 (A') (A') (A') (A") (A') (A') (A') (A") (A') (A")
                 (A') (A') (A") (A') (A') (A') (A") (A') (A") (A")
                 (A') (A') (A') (A') (A') (A") (A') (A") (A') (A')
                 (A') (A") (A') (A') (A") (A') (A") (A") (A') (A')
                 (A") (A') (A') (A') (A") (A") (A') (A") (A') (A")
                 (A") (A') (A') (A') (A') (A') (A') (A') (A') (A')
                 (A") (A') (A') (A') (A') (A') (A') (A") (A") (A")
                 (A") (A") (A') (A') (A') (A') (A') (A') (A') (A')
                 (A') (A') (A') (A') (A') (A') (A') (A') (A') (A')
                 (A') (A') (A') (A') (A") (A") (A") (A') (A') (A')
                 (A') (A') (A') (A') (A') (A')
 Beta  Orbitals:
       Occupied  (A') (A') (A') (A') (A') (A') (A') (A') (A') (A')
                 (A') (A') (A') (A") (A') (A') (A') (A") (A") (A')
                 (A') (A') (A') (A') (A') (A') (A') (A') (A') (A')
                 (A') (A') (A') (A") (A') (A') (A') (A") (A") (A')
                 (A") (A') (A') (A") (A")
       Virtual   (A') (A") (A") (A') (A') (A') (A') (A") (A') (A')
                 (A") (A") (A') (A') (A') (A") (A') (A') (A") (A')
                 (A") (A') (A') (A") (A') (A') (A") (A') (A') (A')
                 (A") (A') (A') (A') (A') (A") (A') (A') (A') (A')
                 (A') (A') (A') (A') (A') (A') (A') (A') (A') (A')
                 (A') (A") (A') (A') (A') (A') (A') (A") (A') (A")
                 (A') (A') (A") (A') (A') (A") (A") (A") (A') (A")
                 (A') (A') (A") (A') (A') (A') (A') (A') (A") (A')
                 (A') (A') (A") (A') (A') (A') (A') (A") (A") (A")
                 (A') (A') (A') (A') (A") (A') (A') (A') (A") (A')
                 (A") (A') (A') (A") (A') (A') (A') (A") (A') (A")
                 (A") (A') (A') (A') (A') (A') (A") (A') (A") (A')
                 (A') (A') (A") (A') (A') (A") (A') (A") (A") (A')
                 (A') (A") (A') (A') (A') (A") (A") (A') (A") (A')
                 (A") (A") (A') (A') (A') (A') (A') (A') (A') (A')
                 (A') (A") (A') (A') (A') (A') (A') (A') (A") (A")
                 (A") (A") (A") (A') (A') (A') (A') (A') (A') (A')
                 (A') (A') (A') (A') (A') (A') (A') (A') (A') (A')
                 (A') (A') (A') (A') (A') (A") (A") (A") (A') (A')
                 (A') (A') (A') (A') (A') (A') (A')
 The electronic state is 2-A'.
 Alpha  occ. eigenvalues -- -102.56804-102.56327-102.56326 -10.50892 -10.50431
 Alpha  occ. eigenvalues --  -10.50425 -10.44839 -10.44835 -10.44253  -9.71161
 Alpha  occ. eigenvalues --   -9.70504  -9.70503  -7.43700  -7.43057  -7.43057
 Alpha  occ. eigenvalues --   -7.43007  -7.42970  -7.42351  -7.42351  -7.42331
 Alpha  occ. eigenvalues --   -7.42330  -0.91458  -0.85164  -0.84283  -0.80681
 Alpha  occ. eigenvalues --   -0.71421  -0.71404  -0.58011  -0.57338  -0.47871
 Alpha  occ. eigenvalues --   -0.44993  -0.41923  -0.39129  -0.38601  -0.38548
 Alpha  occ. eigenvalues --   -0.32561  -0.32498  -0.31331  -0.30022  -0.28417
 Alpha  occ. eigenvalues --   -0.27257  -0.27042  -0.25559  -0.19040  -0.18977
 Alpha  occ. eigenvalues --    0.04201
 Alpha virt. eigenvalues --    0.10067   0.11313   0.11613   0.11878   0.13077
 Alpha virt. eigenvalues --    0.13545   0.14286   0.16344   0.16772   0.17739
 Alpha virt. eigenvalues --    0.18295   0.18817   0.18958   0.19255   0.20893
 Alpha virt. eigenvalues --    0.21081   0.21851   0.21978   0.22456   0.23076
 Alpha virt. eigenvalues --    0.23419   0.23757   0.25339   0.25676   0.25764
 Alpha virt. eigenvalues --    0.26405   0.27126   0.28118   0.28130   0.29919
 Alpha virt. eigenvalues --    0.30854   0.31046   0.31142   0.31552   0.32193
 Alpha virt. eigenvalues --    0.32755   0.34965   0.35777   0.36331   0.37362
 Alpha virt. eigenvalues --    0.37834   0.38293   0.39927   0.40016   0.41318
 Alpha virt. eigenvalues --    0.42262   0.45245   0.45465   0.47584   0.47998
 Alpha virt. eigenvalues --    0.55625   0.56255   0.56908   0.58476   0.59304
 Alpha virt. eigenvalues --    0.59863   0.59949   0.62132   0.62536   0.63204
 Alpha virt. eigenvalues --    0.64895   0.67211   0.67990   0.70264   0.71734
 Alpha virt. eigenvalues --    0.73404   0.75016   0.75806   0.76626   0.77423
 Alpha virt. eigenvalues --    0.79664   0.81241   0.82304   0.82777   0.87367
 Alpha virt. eigenvalues --    0.87433   0.91386   0.93015   0.96082   0.97542
 Alpha virt. eigenvalues --    0.98862   1.01014   1.01334   1.01584   1.02791
 Alpha virt. eigenvalues --    1.03236   1.04679   1.05166   1.05238   1.05898
 Alpha virt. eigenvalues --    1.07604   1.08411   1.10661   1.11595   1.11666
 Alpha virt. eigenvalues --    1.12158   1.12245   1.15499   1.17734   1.19901
 Alpha virt. eigenvalues --    1.20326   1.23985   1.26814   1.29496   1.38104
 Alpha virt. eigenvalues --    1.38735   1.39244   1.43587   1.46043   1.46201
 Alpha virt. eigenvalues --    1.47138   1.51221   1.57315   1.62776   1.65275
 Alpha virt. eigenvalues --    1.71318   1.72202   1.75873   1.77333   1.80556
 Alpha virt. eigenvalues --    1.83392   1.86679   1.93936   1.95260   2.00545
 Alpha virt. eigenvalues --    2.02996   2.04159   2.04444   2.05147   2.08552
 Alpha virt. eigenvalues --    2.09897   2.14844   2.16730   2.29915   2.32813
 Alpha virt. eigenvalues --    2.38700   2.40267   2.41077   2.41640   2.44688
 Alpha virt. eigenvalues --    2.46584   2.47766   2.54574   2.55724   2.58949
 Alpha virt. eigenvalues --    2.60199   2.64522   2.64751   2.67137   2.74237
 Alpha virt. eigenvalues --    2.80208   2.83035   2.85327   2.86072   2.87767
 Alpha virt. eigenvalues --    2.90140   2.91204   2.94224   2.94892   3.04017
 Alpha virt. eigenvalues --    3.05370   3.23412   3.28007   3.28062   3.36427
 Alpha virt. eigenvalues --    3.37425   3.50936   3.52609   3.64084   3.84938
 Alpha virt. eigenvalues --    3.86541   4.12239   4.18593   4.23601   4.93865
 Alpha virt. eigenvalues --   10.04347  10.08836  10.11837  23.58561  24.05063
 Alpha virt. eigenvalues --   24.06730  24.16817  24.20985  24.30934  25.99062
 Alpha virt. eigenvalues --   26.03932  26.11394  26.27438  26.31317  26.47161
 Alpha virt. eigenvalues --   26.67784  26.80035  27.01717 216.14041 216.19195
 Alpha virt. eigenvalues --  216.22578
  Beta  occ. eigenvalues -- -102.56753-102.56248-102.56248 -10.50872 -10.50326
  Beta  occ. eigenvalues --  -10.50320 -10.44823 -10.44820 -10.44180  -9.71132
  Beta  occ. eigenvalues --   -9.70462  -9.70461  -7.43594  -7.42985  -7.42948
  Beta  occ. eigenvalues --   -7.42894  -7.42893  -7.42317  -7.42317  -7.42295
  Beta  occ. eigenvalues --   -7.42295  -0.91199  -0.84765  -0.84026  -0.80351
  Beta  occ. eigenvalues --   -0.71221  -0.71199  -0.57789  -0.57179  -0.47388
  Beta  occ. eigenvalues --   -0.44887  -0.41551  -0.38821  -0.38405  -0.38154
  Beta  occ. eigenvalues --   -0.32380  -0.32274  -0.31156  -0.29927  -0.28243
  Beta  occ. eigenvalues --   -0.27122  -0.26866  -0.25408  -0.18871  -0.18830
  Beta virt. eigenvalues --    0.10721   0.11251   0.11888   0.12728   0.12929
  Beta virt. eigenvalues --    0.14156   0.15721   0.16193   0.16491   0.17112
  Beta virt. eigenvalues --    0.18651   0.18887   0.19044   0.19266   0.19851
  Beta virt. eigenvalues --    0.21120   0.21412   0.22093   0.23397   0.23473
  Beta virt. eigenvalues --    0.23691   0.24605   0.25745   0.26910   0.27244
  Beta virt. eigenvalues --    0.28038   0.28440   0.29249   0.29375   0.30304
  Beta virt. eigenvalues --    0.30534   0.31133   0.32134   0.33047   0.34070
  Beta virt. eigenvalues --    0.34408   0.36090   0.36923   0.37655   0.38591
  Beta virt. eigenvalues --    0.38891   0.40501   0.41178   0.41411   0.42418
  Beta virt. eigenvalues --    0.43248   0.43568   0.47070   0.47831   0.48979
  Beta virt. eigenvalues --    0.50957   0.56554   0.57071   0.57449   0.59330
  Beta virt. eigenvalues --    0.59616   0.60014   0.60096   0.62436   0.62444
  Beta virt. eigenvalues --    0.63635   0.65086   0.67509   0.69034   0.70355
  Beta virt. eigenvalues --    0.72306   0.73525   0.75472   0.75858   0.76790
  Beta virt. eigenvalues --    0.77944   0.80002   0.81627   0.82499   0.83250
  Beta virt. eigenvalues --    0.87710   0.88011   0.91814   0.93222   0.96310
  Beta virt. eigenvalues --    0.98067   0.98982   1.01511   1.01732   1.01882
  Beta virt. eigenvalues --    1.03649   1.03710   1.04833   1.05319   1.05355
  Beta virt. eigenvalues --    1.06223   1.07868   1.08596   1.10783   1.11765
  Beta virt. eigenvalues --    1.11874   1.12456   1.12519   1.15740   1.17845
  Beta virt. eigenvalues --    1.20094   1.20452   1.24296   1.26965   1.29735
  Beta virt. eigenvalues --    1.38222   1.38781   1.39513   1.43730   1.46326
  Beta virt. eigenvalues --    1.46491   1.46861   1.51327   1.57601   1.63053
  Beta virt. eigenvalues --    1.65799   1.71639   1.72458   1.76137   1.77707
  Beta virt. eigenvalues --    1.80927   1.83998   1.87090   1.94237   1.95591
  Beta virt. eigenvalues --    2.00835   2.03312   2.04352   2.04597   2.05838
  Beta virt. eigenvalues --    2.09258   2.10137   2.15304   2.16979   2.30124
  Beta virt. eigenvalues --    2.33114   2.38843   2.40463   2.41242   2.41971
  Beta virt. eigenvalues --    2.44813   2.46737   2.48072   2.54813   2.55985
  Beta virt. eigenvalues --    2.59209   2.60857   2.64955   2.64993   2.67660
  Beta virt. eigenvalues --    2.74640   2.80517   2.84275   2.85457   2.86633
  Beta virt. eigenvalues --    2.88640   2.90470   2.91508   2.94499   2.95170
  Beta virt. eigenvalues --    3.04285   3.05601   3.23683   3.28414   3.28416
  Beta virt. eigenvalues --    3.36872   3.37784   3.51275   3.53078   3.64561
  Beta virt. eigenvalues --    3.85350   3.86978   4.12748   4.19307   4.24000
  Beta virt. eigenvalues --    4.94314  10.04379  10.08862  10.11852  23.58624
  Beta virt. eigenvalues --   24.05217  24.06798  24.16966  24.21047  24.31007
  Beta virt. eigenvalues --   25.99229  26.04132  26.11560  26.27633  26.31474
  Beta virt. eigenvalues --   26.47371  26.68143  26.80453  27.02080 216.14152
  Beta virt. eigenvalues --  216.19313 216.22663
          Condensed to atoms (all electrons):
               1          2          3          4          5          6
     1  C  121.990442 -13.308174 -60.988911  -6.857045 -60.968780 -13.304499
     2  C  -13.308174  39.739434  -4.799189  -9.381051   0.580577  -9.418428
     3  C  -60.988911  -4.799189  72.511416  10.178566  19.542545   0.583080
     4  C   -6.857045  -9.381051  10.178566  30.904286  10.174780  -9.377761
     5  C  -60.968780   0.580577  19.542545  10.174780  72.486326  -4.795250
     6  C  -13.304499  -9.418428   0.583080  -9.377761  -4.795250  39.727679
     7  Cl   7.045746  -1.063897  -1.525265  -0.330828  -5.726205  -1.792829
     8  Cl   2.988111  -0.910475  -2.192013   0.705264  -2.191296  -0.909725
     9  Cl   7.045852  -1.792721  -5.726907  -0.330868  -1.524528  -1.063774
    10  H    5.467375   3.056500  -8.046098  -3.485298  -2.515655  -0.047723
    11  H   11.527445   4.080701 -11.071559 -14.377169 -11.068533   4.078893
    12  H    5.466678  -0.047537  -2.516363  -3.485113  -8.044525   3.055661
               7          8          9         10         11         12
     1  C    7.045746   2.988111   7.045852   5.467375  11.527445   5.466678
     2  C   -1.063897  -0.910475  -1.792721   3.056500   4.080701  -0.047537
     3  C   -1.525265  -2.192013  -5.726907  -8.046098 -11.071559  -2.516363
     4  C   -0.330828   0.705264  -0.330868  -3.485298 -14.377169  -3.485113
     5  C   -5.726205  -2.191296  -1.524528  -2.515655 -11.068533  -8.044525
     6  C   -1.792829  -0.909725  -1.063774  -0.047723   4.078893   3.055661
     7  Cl  18.437619   0.078115   0.166486   0.167893   0.627054   0.666865
     8  Cl   0.078115  18.253575   0.078099   0.164730   0.306936   0.164729
     9  Cl   0.166486   0.078099  18.437441   0.666804   0.626986   0.167862
    10  H    0.167893   0.164730   0.666804   2.428894   2.932352   0.475348
    11  H    0.627054   0.306936   0.626986   2.932352  12.024801   2.932455
    12  H    0.666865   0.164729   0.167862   0.475348   2.932455   2.429103
          Atomic-Atomic Spin Densities.
               1          2          3          4          5          6
     1  C   89.691250 -11.525621 -50.681469  -5.262183 -50.662579 -11.524920
     2  C  -11.525621  12.763735  -9.394268  -6.689103   5.652229   5.655502
     3  C  -50.681469  -9.394268  55.427251   8.752461  21.164411   5.653195
     4  C   -5.262183  -6.689103   8.752461  20.748343   8.748903  -6.685714
     5  C  -50.662579   5.652229  21.164411   8.748903  55.400453  -9.389402
     6  C  -11.524920   5.655502   5.653195  -6.685714  -9.389402  12.755623
     7  Cl   6.304268  -1.381929  -1.832697  -0.129540  -5.602386  -0.244474
     8  Cl   5.063765  -1.229876  -2.206975   0.103734  -2.206350  -1.229516
     9  Cl   6.304574  -0.244580  -5.603289  -0.129602  -1.831942  -1.381611
    10  H    5.664437   3.133918  -8.658339  -3.395731  -2.548095  -0.084758
    11  H   11.407274   4.156493 -10.970248 -14.955860 -10.967228   4.154674
    12  H    5.663662  -0.084565  -2.548811  -3.395567  -8.656680   3.133095
               7          8          9         10         11         12
     1  C    6.304268   5.063765   6.304574   5.664437  11.407274   5.663662
     2  C   -1.381929  -1.229876  -0.244580   3.133918   4.156493  -0.084565
     3  C   -1.832697  -2.206975  -5.603289  -8.658339 -10.970248  -2.548811
     4  C   -0.129540   0.103734  -0.129602  -3.395731 -14.955860  -3.395567
     5  C   -5.602386  -2.206350  -1.831942  -2.548095 -10.967228  -8.656680
     6  C   -0.244474  -1.229516  -1.381611  -0.084758   4.154674   3.133095
     7  Cl   0.974309   0.359753   0.178293   0.161913   0.640781   0.656974
     8  Cl   0.359753   0.352747   0.359725   0.185508   0.290843   0.185501
     9  Cl   0.178293   0.359725   0.974168   0.656902   0.640713   0.161884
    10  H    0.161913   0.185508   0.656902   1.945983   2.952670   0.471867
    11  H    0.640781   0.290843   0.640713   2.952670  11.546318   2.952765
    12  H    0.656974   0.185501   0.161884   0.471867   2.952765   1.946264
 Mulliken charges and spin densities:
               1          2
     1  C   -0.104241   0.442456
     2  C   -0.735739   0.811935
     3  C    0.050700  -0.898780
     4  C    1.662238  -2.289859
     5  C    0.050545  -0.898668
     6  C   -0.735323   0.811694
     7  Cl   0.249246   0.085266
     8  Cl   0.463951   0.028861
     9  Cl   0.249269   0.085236
    10  H   -0.265121   0.486275
    11  H   -1.620363   1.849194
    12  H   -0.265162   0.486390
 Sum of Mulliken charges =  -1.00000   1.00000
 Mulliken charges and spin densities with hydrogens summed into heavy atoms:
               1          2
     1  C   -0.104241   0.442456
     2  C   -0.735739   0.811935
     3  C   -0.214421  -0.412504
     4  C    0.041875  -0.440665
     5  C   -0.214617  -0.412278
     6  C   -0.735323   0.811694
     7  Cl   0.249246   0.085266
     8  Cl   0.463951   0.028861
     9  Cl   0.249269   0.085236
 Electronic spatial extent (au):  <R**2>=           2003.2528
 Charge=             -1.0000 electrons
 Dipole moment (field-independent basis, Debye):
    X=             -0.0010    Y=             -8.8341    Z=              0.0000  Tot=              8.8341
 Quadrupole moment (field-independent basis, Debye-Ang):
   XX=           -104.6021   YY=           -138.2050   ZZ=            -86.3620
   XY=             -0.0028   XZ=             -0.0000   YZ=              0.0000
 Traceless Quadrupole moment (field-independent basis, Debye-Ang):
   XX=              5.1209   YY=            -28.4820   ZZ=             23.3611
   XY=             -0.0028   XZ=             -0.0000   YZ=              0.0000
 Octapole moment (field-independent basis, Debye-Ang**2):
  XXX=             -0.0142  YYY=           -340.9101  ZZZ=              0.0000  XYY=             -0.0129
  XXY=            -57.6918  XXZ=              0.0000  XZZ=             -0.0025  YZZ=            -46.2813
  YYZ=              0.0000  XYZ=             -0.0000
 Hexadecapole moment (field-independent basis, Debye-Ang**3):
 XXXX=          -1919.6571 YYYY=          -2909.2354 ZZZZ=           -175.8582 XXXY=             -0.0404
 XXXZ=             -0.0000 YYYX=             -0.0586 YYYZ=              0.0000 ZZZX=             -0.0000
 ZZZY=              0.0000 XXYY=           -729.4838 XXZZ=           -334.4391 YYZZ=           -371.8275
 XXYZ=              0.0000 YYXZ=             -0.0000 ZZXY=             -0.0084
 N-N= 6.398986949273D+02 E-N=-5.107617278894D+03  KE= 1.607080588293D+03
 Symmetry A'   KE= 1.463085700158D+03
 Symmetry A"   KE= 1.439948881341D+02
 Symmetry A'   SP= 9.999999999993D-01
 Symmetry A"   SP=-5.574700924949D-14
                          Isotropic Fermi Contact Couplings
        Atom                 a.u.       MegaHertz       Gauss      10(-4) cm-1
     1  C(13)              0.00890      10.00916       3.57152       3.33870
     2  C(13)              0.08992     101.09118      36.07185      33.72039
     3  C(13)              0.01517      17.05445       6.08545       5.68875
     4  C(13)              0.07433      83.55919      29.81600      27.87235
     5  C(13)              0.01518      17.06892       6.09061       5.69358
     6  C(13)              0.08992     101.09139      36.07192      33.72046
     7  Cl(35)             0.11089      48.62202      17.34955      16.21856
     8  Cl(35)             0.08739      38.31911      13.67321      12.78188
     9  Cl(35)             0.11087      48.61391      17.34665      16.21586
    10  H(1)               0.00116       5.17128       1.84524       1.72495
    11  H(1)              -0.00004      -0.18265      -0.06517      -0.06093
    12  H(1)               0.00116       5.17347       1.84602       1.72568
 --------------------------------------------------------
       Center         ----  Spin Dipole Couplings  ----
                      3XX-RR        3YY-RR        3ZZ-RR
 --------------------------------------------------------
     1   Atom       -0.013567      0.041486     -0.027920
     2   Atom        0.021050      0.000899     -0.021949
     3   Atom        0.008342      0.005159     -0.013502
     4   Atom       -0.005322      0.011608     -0.006286
     5   Atom        0.008350      0.005157     -0.013507
     6   Atom        0.021055      0.000902     -0.021957
     7   Atom        0.260660     -0.109383     -0.151277
     8   Atom       -0.094423      0.194398     -0.099974
     9   Atom        0.260599     -0.109356     -0.151242
    10   Atom        0.001411      0.003561     -0.004971
    11   Atom       -0.004421      0.011876     -0.007455
    12   Atom        0.001411      0.003561     -0.004972
 --------------------------------------------------------
                        XY            XZ            YZ
 --------------------------------------------------------
     1   Atom       -0.000003      0.000000     -0.000000
     2   Atom        0.034924      0.000000     -0.000000
     3   Atom       -0.005594      0.000000      0.000000
     4   Atom       -0.000001      0.000000     -0.000000
     5   Atom        0.005602      0.000000     -0.000000
     6   Atom       -0.034935      0.000000     -0.000000
     7   Atom       -0.129135     -0.000000      0.000000
     8   Atom        0.000004      0.000000     -0.000000
     9   Atom        0.129105     -0.000000     -0.000000
    10   Atom       -0.003267      0.000000     -0.000000
    11   Atom       -0.000000      0.000000     -0.000000
    12   Atom        0.003269      0.000000      0.000000
 --------------------------------------------------------


 ---------------------------------------------------------------------------------
              Anisotropic Spin Dipole Couplings in Principal Axis System
 ---------------------------------------------------------------------------------

       Atom             a.u.   MegaHertz   Gauss  10(-4) cm-1        Axes

              Baa    -0.0279    -3.747    -1.337    -1.250  0.0000  0.0000  1.0000
     1 C(13)  Bbb    -0.0136    -1.821    -0.650    -0.607  1.0000  0.0000  0.0000
              Bcc     0.0415     5.567     1.986     1.857 -0.0000  1.0000 -0.0000
 
              Baa    -0.0254    -3.405    -1.215    -1.136 -0.6012  0.7991 -0.0000
     2 C(13)  Bbb    -0.0219    -2.945    -1.051    -0.982  0.0000  0.0000  1.0000
              Bcc     0.0473     6.350     2.266     2.118  0.7991  0.6012  0.0000
 
              Baa    -0.0135    -1.812    -0.646    -0.604  0.0000  0.0000  1.0000
     3 C(13)  Bbb     0.0009     0.125     0.045     0.042  0.6026  0.7980 -0.0000
              Bcc     0.0126     1.686     0.602     0.562  0.7980 -0.6026 -0.0000
 
              Baa    -0.0063    -0.844    -0.301    -0.281  0.0000  0.0000  1.0000
     4 C(13)  Bbb    -0.0053    -0.714    -0.255    -0.238  1.0000  0.0000  0.0000
              Bcc     0.0116     1.558     0.556     0.520 -0.0000  1.0000 -0.0000
 
              Baa    -0.0135    -1.813    -0.647    -0.605  0.0000  0.0000  1.0000
     5 C(13)  Bbb     0.0009     0.125     0.044     0.042 -0.6025  0.7982  0.0000
              Bcc     0.0126     1.688     0.602     0.563  0.7982  0.6025  0.0000
 
              Baa    -0.0254    -3.406    -1.215    -1.136  0.6012  0.7991  0.0000
     6 C(13)  Bbb    -0.0220    -2.946    -1.051    -0.983  0.0000  0.0000  1.0000
              Bcc     0.0473     6.352     2.267     2.119  0.7991 -0.6012  0.0000
 
              Baa    -0.1513    -7.917    -2.825    -2.641  0.0000  0.0000  1.0000
     7 Cl(35) Bbb    -0.1500    -7.850    -2.801    -2.619  0.3000  0.9539 -0.0000
              Bcc     0.3013    15.768     5.626     5.260  0.9539 -0.3000  0.0000
 
              Baa    -0.1000    -5.232    -1.867    -1.745  0.0000  0.0000  1.0000
     8 Cl(35) Bbb    -0.0944    -4.942    -1.763    -1.648  1.0000 -0.0000  0.0000
              Bcc     0.1944    10.174     3.630     3.394  0.0000  1.0000 -0.0000
 
              Baa    -0.1512    -7.916    -2.825    -2.640  0.0000  0.0000  1.0000
     9 Cl(35) Bbb    -0.1500    -7.848    -2.800    -2.618 -0.3000  0.9539  0.0000
              Bcc     0.3012    15.764     5.625     5.258  0.9539  0.3000 -0.0000
 
              Baa    -0.0050    -2.653    -0.946    -0.885  0.0000  0.0000  1.0000
    10 H(1)   Bbb    -0.0010    -0.509    -0.182    -0.170  0.8101  0.5863  0.0000
              Bcc     0.0059     3.161     1.128     1.055 -0.5863  0.8101 -0.0000
 
              Baa    -0.0075    -3.978    -1.419    -1.327  0.0000  0.0000  1.0000
    11 H(1)   Bbb    -0.0044    -2.359    -0.842    -0.787  1.0000  0.0000  0.0000
              Bcc     0.0119     6.336     2.261     2.114 -0.0000  1.0000 -0.0000
 
              Baa    -0.0050    -2.653    -0.947    -0.885  0.0000  0.0000  1.0000
    12 H(1)   Bbb    -0.0010    -0.510    -0.182    -0.170  0.8101 -0.5863  0.0000
              Bcc     0.0059     3.163     1.129     1.055  0.5863  0.8101 -0.0000
 

 ---------------------------------------------------------------------------------

 Calling FoFJK, ICntrl=      2127 FMM=F ISym2X=1 I1Cent= 0 IOpClX= 1 NMat=1 NMatS=1 NMatT=0.
 ***** Axes restored to original set *****
 -------------------------------------------------------------------
 Center     Atomic                   Forces (Hartrees/Bohr)
 Number     Number              X              Y              Z
 -------------------------------------------------------------------
      1        6           0.020846457   -0.011285897    0.000000000
      2        6           0.014628804   -0.026542541    0.000000000
      3        6          -0.008094321   -0.000443575    0.000000000
      4        6          -0.006318765    0.003414137    0.000000000
      5        6          -0.004052677    0.006904958   -0.000000000
      6        6           0.030228270    0.002261840   -0.000000000
      7       17          -0.004420899    0.004093026   -0.000000000
      8       17          -0.028937557    0.015663979   -0.000000000
      9       17          -0.005843676    0.001458595    0.000000000
     10        1          -0.004416844   -0.003176763    0.000000000
     11        1          -0.003860874    0.002089698    0.000000000
     12        1           0.000242083    0.005562543   -0.000000000
 -------------------------------------------------------------------
 Cartesian Forces:  Max     0.030228270 RMS     0.010295507

 GradGradGradGradGradGradGradGradGradGradGradGradGradGradGradGradGradGrad
 Berny optimization.
 FormGI is forming the generalized inverse of G from B-inverse, IUseBI=4.
 Internal  Forces:  Max     0.032905052 RMS     0.007263317
 Search for a local minimum.
 Step number   1 out of a maximum of   64
 All quantities printed in internal units (Hartrees-Bohrs-Radians)
 Mixed Optimization -- RFO/linear search
 Second derivative matrix not updated -- first step.
 ITU=  0
     Eigenvalues ---    0.02075   0.02076   0.02084   0.02084   0.02091
     Eigenvalues ---    0.02092   0.02104   0.02108   0.02111   0.16000
     Eigenvalues ---    0.16000   0.16000   0.22084   0.23476   0.24914
     Eigenvalues ---    0.25000   0.25000   0.25000   0.26353   0.26353
     Eigenvalues ---    0.33829   0.33913   0.33936   0.34902   0.41599
     Eigenvalues ---    0.41894   0.45251   0.45667   0.45857   0.45862
 RFO step:  Lambda=-8.02559678D-03 EMin= 2.07521385D-02
 Linear search not attempted -- first point.
 Iteration  1 RMS(Cart)=  0.02801437 RMS(Int)=  0.00039942
 Iteration  2 RMS(Cart)=  0.00043020 RMS(Int)=  0.00002573
 Iteration  3 RMS(Cart)=  0.00000006 RMS(Int)=  0.00002573
 ClnCor:  largest displacement from symmetrization is 5.64D-09 for atom     8.
 Variable       Old X    -DE/DX   Delta X   Delta X   Delta X     New X
                                 (Linear)    (Quad)   (Total)
    R1        2.64337  -0.01244   0.00000  -0.02685  -0.02681   2.61656
    R2        2.64337  -0.01244   0.00000  -0.02685  -0.02681   2.61656
    R3        3.22834   0.03291   0.00000   0.09216   0.09216   3.32050
    R4        2.64985  -0.01507   0.00000  -0.03272  -0.03272   2.61714
    R5        3.39588   0.00124   0.00000   0.00458   0.00458   3.40046
    R6        2.64249  -0.01161   0.00000  -0.02468  -0.02472   2.61777
    R7        2.07438  -0.00543   0.00000  -0.01562  -0.01562   2.05876
    R8        2.64250  -0.01161   0.00000  -0.02469  -0.02473   2.61777
    R9        2.07620  -0.00439   0.00000  -0.01268  -0.01268   2.06352
   R10        2.64986  -0.01507   0.00000  -0.03273  -0.03273   2.61713
   R11        2.07477  -0.00555   0.00000  -0.01600  -0.01600   2.05877
   R12        3.39588   0.00125   0.00000   0.00460   0.00460   3.40048
    A1        2.10287  -0.00872   0.00000  -0.03410  -0.03402   2.06885
    A2        2.09016   0.00436   0.00000   0.01705   0.01701   2.10717
    A3        2.09016   0.00436   0.00000   0.01705   0.01701   2.10717
    A4        2.08877   0.00648   0.00000   0.02512   0.02516   2.11394
    A5        2.16263  -0.01325   0.00000  -0.05134  -0.05136   2.11127
    A6        2.03178   0.00677   0.00000   0.02622   0.02620   2.05798
    A7        2.09376  -0.00151   0.00000  -0.00591  -0.00595   2.08781
    A8        2.09202   0.00116   0.00000   0.00535   0.00537   2.09739
    A9        2.09741   0.00035   0.00000   0.00056   0.00058   2.09799
   A10        2.09844  -0.00123   0.00000  -0.00434  -0.00442   2.09402
   A11        2.09237   0.00062   0.00000   0.00217   0.00221   2.09458
   A12        2.09237   0.00062   0.00000   0.00217   0.00221   2.09458
   A13        2.09375  -0.00150   0.00000  -0.00588  -0.00592   2.08783
   A14        2.09741   0.00035   0.00000   0.00054   0.00056   2.09797
   A15        2.09202   0.00116   0.00000   0.00535   0.00537   2.09739
   A16        2.08878   0.00648   0.00000   0.02511   0.02515   2.11392
   A17        2.16263  -0.01325   0.00000  -0.05134  -0.05136   2.11127
   A18        2.03178   0.00677   0.00000   0.02623   0.02621   2.05799
    D1       -0.00000  -0.00000   0.00000   0.00000   0.00000   0.00000
    D2        3.14159  -0.00000   0.00000   0.00000   0.00000   3.14159
    D3        3.14159  -0.00000   0.00000   0.00000   0.00000   3.14159
    D4       -0.00000   0.00000   0.00000   0.00000   0.00000   0.00000
    D5       -0.00000   0.00000   0.00000   0.00000   0.00000   0.00000
    D6        3.14159   0.00000   0.00000   0.00000   0.00000   3.14159
    D7        3.14159   0.00000   0.00000   0.00000   0.00000   3.14159
    D8       -0.00000   0.00000   0.00000   0.00000   0.00000   0.00000
    D9        0.00000   0.00000   0.00000  -0.00000   0.00000   0.00000
   D10        3.14159  -0.00000   0.00000  -0.00000   0.00000   3.14159
   D11        3.14159  -0.00000   0.00000  -0.00000   0.00000   3.14159
   D12       -0.00000   0.00000   0.00000  -0.00000   0.00000   0.00000
   D13       -0.00000   0.00000   0.00000   0.00000   0.00000   0.00000
   D14        3.14159   0.00000   0.00000   0.00000   0.00000   3.14159
   D15        3.14159  -0.00000   0.00000  -0.00000   0.00000   3.14159
   D16        0.00000  -0.00000   0.00000  -0.00000   0.00000   0.00000
   D17        0.00000  -0.00000   0.00000   0.00000   0.00000   0.00000
   D18        3.14159  -0.00000   0.00000  -0.00000   0.00000   3.14159
   D19        3.14159   0.00000   0.00000   0.00000   0.00000   3.14159
   D20        0.00000  -0.00000   0.00000   0.00000  -0.00000   0.00000
   D21        0.00000   0.00000   0.00000  -0.00000  -0.00000   0.00000
   D22        3.14159  -0.00000   0.00000  -0.00000   0.00000   3.14159
   D23        3.14159   0.00000   0.00000  -0.00000   0.00000   3.14159
   D24        0.00000  -0.00000   0.00000  -0.00000   0.00000   0.00000
         Item               Value     Threshold  Converged?
 Maximum Force            0.032905     0.000450     NO 
 RMS     Force            0.007263     0.000300     NO 
 Maximum Displacement     0.110095     0.001800     NO 
 RMS     Displacement     0.028241     0.001200     NO 
 Predicted change in Energy=-4.108396D-03
 GradGradGradGradGradGradGradGradGradGradGradGradGradGradGradGradGradGrad

                          Input orientation:                          
 ---------------------------------------------------------------------
 Center     Atomic      Atomic             Coordinates (Angstroms)
 Number     Number       Type             X           Y           Z
 ---------------------------------------------------------------------
      1          6           0       -3.107480    0.144323    0.000000
      2          6           0       -1.918660    0.854178   -0.000000
      3          6           0       -0.696278    0.203168   -0.000000
      4          6           0       -0.657985   -1.181568    0.000000
      5          6           0       -1.838323   -1.906660    0.000000
      6          6           0       -3.051784   -1.239179    0.000000
      7         17           0       -4.556262   -2.226393    0.000000
      8         17           0       -4.652751    0.980774    0.000000
      9         17           0       -1.914730    2.653621   -0.000000
     10          1           0        0.229737    0.777092   -0.000000
     11          1           0        0.302320   -1.701381    0.000000
     12          1           0       -1.812506   -2.995807    0.000000
 ---------------------------------------------------------------------
                    Distance matrix (angstroms):
                    1          2          3          4          5
     1  C    0.000000
     2  C    1.384625   0.000000
     3  C    2.411919   1.384930   0.000000
     4  C    2.785320   2.394486   1.385266   0.000000
     5  C    2.411906   2.762006   2.399091   1.385263   0.000000
     6  C    1.384623   2.380359   2.762023   2.394491   1.384925
     7  Cl   2.778356   4.055473   4.560947   4.035866   2.736681
     8  Cl   1.757132   2.737021   4.032164   4.542453   4.032156
     9  Cl   2.778350   1.799448   2.736667   4.035850   4.560921
    10  H    3.396677   2.149780   1.089447   2.150442   3.388126
    11  H    3.877288   3.385799   2.150467   1.091967   2.150463
    12  H    3.396671   3.851448   3.388127   2.150437   1.089453
                    6          7          8          9         10
     6  C    0.000000
     7  Cl   1.799457   0.000000
     8  Cl   2.737021   3.208617   0.000000
     9  Cl   4.055463   5.549074   3.208610   0.000000
    10  H    3.851458   5.650372   4.886735   2.849579   0.000000
    11  H    3.385800   4.886866   5.634420   4.886856   2.479536
    12  H    2.149780   2.849595   4.886736   5.650353   4.290166
                   11         12
    11  H    0.000000
    12  H    2.479522   0.000000
 Stoichiometry    C6H3Cl3(1-,2)
 Framework group  CS[SG(C6H3Cl3)]
 Deg. of freedom    21
 Full point group                 CS      NOp   2
 Largest Abelian subgroup         CS      NOp   2
 Largest concise Abelian subgroup C1      NOp   1
                         Standard orientation:                         
 ---------------------------------------------------------------------
 Center     Atomic      Atomic             Coordinates (Angstroms)
 Number     Number       Type             X           Y           Z
 ---------------------------------------------------------------------
      1          6           0        0.000000   -0.273738   -0.000000
      2          6           0       -1.190178    0.433837    0.000000
      3          6           0       -1.199545    1.818735    0.000000
      4          6           0        0.000006    2.511582    0.000000
      5          6           0        1.199546    1.818720    0.000000
      6          6           0        1.190182    0.433826    0.000000
      7         17           0        2.774540   -0.419318   -0.000000
      8         17           0       -0.000010   -2.030870   -0.000000
      9         17           0       -2.774535   -0.419289   -0.000000
     10          1           0       -2.145080    2.359899    0.000000
     11          1           0        0.000015    3.603550    0.000000
     12          1           0        2.145086    2.359887    0.000000
 ---------------------------------------------------------------------
 Rotational constants (GHZ):           1.4835400           0.8201679           0.5281711
 Standard basis: 6-311++G(d,p) (5D, 7F)
 There are   189 symmetry adapted cartesian basis functions of A'  symmetry.
 There are    63 symmetry adapted cartesian basis functions of A"  symmetry.
 There are   180 symmetry adapted basis functions of A'  symmetry.
 There are    63 symmetry adapted basis functions of A"  symmetry.
   243 basis functions,   402 primitive gaussians,   252 cartesian basis functions
    46 alpha electrons       45 beta electrons
       nuclear repulsion energy       642.5405718481 Hartrees.
 NAtoms=   12 NActive=   12 NUniq=   12 SFac= 1.00D+00 NAtFMM=   60 NAOKFM=F Big=F
 Integral buffers will be    131072 words long.
 Raffenetti 2 integral format.
 Two-electron integral symmetry is turned on.
 One-electron integrals computed using PRISM.
 NBasis=   243 RedAO= T EigKep=  1.23D-06  NBF=   180    63
 NBsUse=   242 1.00D-06 EigRej=  7.56D-07 NBFU=   179    63
 Initial guess from the checkpoint file:  "frequency_chks/123ClBzAnionRadical_Freq.chk"
 B after Tr=     0.000000    0.000000    0.000000
         Rot=    1.000000    0.000000    0.000000    0.000002 Ang=   0.00 deg.
 Initial guess orbital symmetries:
 Alpha Orbitals:
       Occupied  (A') (A') (A') (A') (A') (A') (A') (A') (A') (A')
                 (A') (A') (A') (A') (A') (A") (A') (A") (A") (A')
                 (A') (A') (A') (A') (A') (A') (A') (A') (A') (A')
                 (A') (A') (A') (A") (A') (A') (A') (A") (A") (A')
                 (A") (A') (A') (A") (A") (A')
       Virtual   (A') (A") (A') (A") (A') (A') (A') (A") (A') (A')
                 (A') (A") (A") (A') (A') (A") (A') (A') (A') (A')
                 (A") (A") (A') (A') (A') (A") (A') (A') (A") (A')
                 (A") (A') (A') (A') (A') (A") (A') (A') (A') (A')
                 (A') (A') (A') (A') (A') (A') (A') (A') (A') (A')
                 (A') (A") (A') (A') (A') (A") (A') (A") (A') (A')
                 (A') (A") (A') (A') (A") (A") (A") (A') (A") (A')
                 (A') (A") (A') (A') (A') (A') (A') (A") (A') (A')
                 (A') (A') (A") (A') (A') (A') (A") (A") (A") (A')
                 (A') (A') (A') (A") (A') (A') (A') (A") (A') (A")
                 (A') (A') (A") (A') (A') (A') (A") (A') (A") (A")
                 (A') (A') (A') (A') (A') (A") (A') (A") (A') (A')
                 (A') (A") (A') (A') (A") (A') (A") (A") (A') (A')
                 (A") (A') (A') (A') (A") (A") (A') (A") (A') (A")
                 (A") (A') (A') (A') (A') (A') (A') (A') (A') (A')
                 (A") (A') (A') (A') (A') (A') (A') (A") (A") (A")
                 (A") (A") (A') (A') (A') (A') (A') (A') (A') (A')
                 (A') (A') (A') (A') (A') (A') (A') (A') (A') (A')
                 (A') (A') (A') (A') (A") (A") (A") (A') (A') (A')
                 (A') (A') (A') (A') (A') (A')
 Beta  Orbitals:
       Occupied  (A') (A') (A') (A') (A') (A') (A') (A') (A') (A')
                 (A') (A') (A') (A") (A') (A') (A') (A") (A") (A')
                 (A') (A') (A') (A') (A') (A') (A') (A') (A') (A')
                 (A') (A') (A') (A") (A') (A') (A') (A") (A") (A')
                 (A") (A') (A') (A") (A")
       Virtual   (A') (A") (A") (A') (A') (A') (A') (A") (A') (A')
                 (A") (A") (A') (A') (A') (A") (A') (A') (A") (A')
                 (A") (A') (A') (A") (A') (A') (A") (A') (A') (A')
                 (A") (A') (A') (A') (A') (A") (A') (A') (A') (A')
                 (A') (A') (A') (A') (A') (A') (A') (A') (A') (A')
                 (A') (A") (A') (A') (A') (A') (A') (A") (A') (A")
                 (A') (A') (A") (A') (A') (A") (A") (A") (A') (A")
                 (A') (A') (A") (A') (A') (A') (A') (A') (A") (A')
                 (A') (A') (A") (A') (A') (A') (A') (A") (A") (A")
                 (A') (A') (A') (A') (A") (A') (A') (A') (A") (A')
                 (A") (A') (A') (A") (A') (A') (A') (A") (A') (A")
                 (A") (A') (A') (A') (A') (A') (A") (A') (A") (A')
                 (A') (A') (A") (A') (A') (A") (A') (A") (A") (A')
                 (A') (A") (A') (A') (A') (A") (A") (A') (A") (A')
                 (A") (A") (A') (A') (A') (A') (A') (A') (A') (A')
                 (A') (A") (A') (A') (A') (A') (A') (A') (A") (A")
                 (A") (A") (A") (A') (A') (A') (A') (A') (A') (A')
                 (A') (A') (A') (A') (A') (A') (A') (A') (A') (A')
                 (A') (A') (A') (A') (A') (A") (A") (A") (A') (A')
                 (A') (A') (A') (A') (A') (A') (A')
 Initial guess <Sx>= 0.0000 <Sy>= 0.0000 <Sz>= 0.5000 <S**2>= 0.7509 S= 0.5005
 ExpMin= 3.60D-02 ExpMax= 1.06D+05 ExpMxC= 3.62D+03 IAcc=3 IRadAn=         5 AccDes= 0.00D+00
 Harris functional with IExCor= 1009 and IRadAn=       5 diagonalized for initial guess.
 HarFok:  IExCor= 1009 AccDes= 0.00D+00 IRadAn=         5 IDoV= 1 UseB2=F ITyADJ=14
 ICtDFT=  3500011 ScaDFX=  1.000000  1.000000  1.000000  1.000000
 FoFCou: FMM=F IPFlag=           0 FMFlag=      100000 FMFlg1=           0
         NFxFlg=           0 DoJE=T BraDBF=F KetDBF=T FulRan=T
         wScrn=  0.000000 ICntrl=       500 IOpCl=  0 I1Cent=   200000004 NGrid=           0
         NMat0=    1 NMatS0=      1 NMatT0=    0 NMatD0=    1 NMtDS0=    0 NMtDT0=    0
 Petite list used in FoFCou.
 Keep R1 and R2 ints in memory in symmetry-blocked form, NReq=695666862.
 Requested convergence on RMS density matrix=1.00D-08 within 128 cycles.
 Requested convergence on MAX density matrix=1.00D-06.
 Requested convergence on             energy=1.00D-06.
 No special actions if energy rises.
 SCF Done:  E(UM062X) =  -1610.97065751     A.U. after   30 cycles
            NFock= 30  Conv=0.38D-08     -V/T= 2.0023
 <Sx>= 0.0000 <Sy>= 0.0000 <Sz>= 0.5000 <S**2>= 0.7511 S= 0.5005
 <L.S>=  0.00000000000    
 Annihilation of the first spin contaminant:
 S**2 before annihilation     0.7511,   after     0.7500
 Calling FoFJK, ICntrl=      2127 FMM=F ISym2X=1 I1Cent= 0 IOpClX= 1 NMat=1 NMatS=1 NMatT=0.
 ***** Axes restored to original set *****
 -------------------------------------------------------------------
 Center     Atomic                   Forces (Hartrees/Bohr)
 Number     Number              X              Y              Z
 -------------------------------------------------------------------
      1        6           0.017855742   -0.009664001    0.000000000
      2        6          -0.000592931   -0.013861714   -0.000000000
      3        6          -0.000334100    0.003921715    0.000000000
      4        6           0.001511247   -0.000815425    0.000000000
      5        6          -0.003465409   -0.001874412   -0.000000000
      6        6           0.011280849    0.008078294    0.000000000
      7       17          -0.008095796   -0.005048445   -0.000000000
      8       17          -0.018243197    0.009874865    0.000000000
      9       17          -0.000200338    0.009539778    0.000000000
     10        1           0.000434524    0.000369533    0.000000000
     11        1          -0.000078368    0.000042398   -0.000000000
     12        1          -0.000072224   -0.000562586   -0.000000000
 -------------------------------------------------------------------
 Cartesian Forces:  Max     0.018243197 RMS     0.006333896

 GradGradGradGradGradGradGradGradGradGradGradGradGradGradGradGradGradGrad
 Berny optimization.
 Using GEDIIS/GDIIS optimizer.
 FormGI is forming the generalized inverse of G from B-inverse, IUseBI=4.
 Internal  Forces:  Max     0.020744330 RMS     0.003474371
 Search for a local minimum.
 Step number   2 out of a maximum of   64
 All quantities printed in internal units (Hartrees-Bohrs-Radians)
 Mixed Optimization -- RFO/linear search
 Update second derivatives using D2CorX and points    1    2
 DE= -5.07D-03 DEPred=-4.11D-03 R= 1.23D+00
 TightC=F SS=  1.41D+00  RLast= 1.54D-01 DXNew= 5.0454D-01 4.6288D-01
 Trust test= 1.23D+00 RLast= 1.54D-01 DXMaxT set to 4.63D-01
 ITU=  1  0
 Use linear search instead of GDIIS.
     Eigenvalues ---    0.02075   0.02075   0.02084   0.02084   0.02091
     Eigenvalues ---    0.02092   0.02104   0.02108   0.02111   0.15617
     Eigenvalues ---    0.16000   0.16000   0.16013   0.22115   0.23489
     Eigenvalues ---    0.24970   0.25000   0.25000   0.26353   0.28723
     Eigenvalues ---    0.30157   0.33845   0.33925   0.34776   0.41467
     Eigenvalues ---    0.41843   0.45439   0.45662   0.45863   0.55081
 RFO step:  Lambda=-2.90190376D-03 EMin= 2.07504838D-02
 Quartic linear search produced a step of  0.47041.
 Iteration  1 RMS(Cart)=  0.01913614 RMS(Int)=  0.00013211
 Iteration  2 RMS(Cart)=  0.00023171 RMS(Int)=  0.00002361
 Iteration  3 RMS(Cart)=  0.00000004 RMS(Int)=  0.00002361
 ClnCor:  largest displacement from symmetrization is 2.25D-10 for atom     7.
 Variable       Old X    -DE/DX   Delta X   Delta X   Delta X     New X
                                 (Linear)    (Quad)   (Total)
    R1        2.61656  -0.00214  -0.01261  -0.00488  -0.01746   2.59910
    R2        2.61656  -0.00214  -0.01261  -0.00488  -0.01746   2.59910
    R3        3.32050   0.02074   0.04335   0.07826   0.12161   3.44211
    R4        2.61714  -0.00113  -0.01539  -0.00047  -0.01585   2.60128
    R5        3.40046   0.00954   0.00216   0.05215   0.05430   3.45477
    R6        2.61777   0.00237  -0.01163   0.01062  -0.00105   2.61672
    R7        2.05876   0.00056  -0.00735   0.00379  -0.00356   2.05519
    R8        2.61777   0.00237  -0.01163   0.01062  -0.00105   2.61672
    R9        2.06352  -0.00009  -0.00596   0.00073  -0.00524   2.05828
   R10        2.61713  -0.00113  -0.01540  -0.00046  -0.01585   2.60128
   R11        2.05877   0.00056  -0.00753   0.00381  -0.00372   2.05505
   R12        3.40048   0.00954   0.00216   0.05214   0.05431   3.45479
    A1        2.06885  -0.00061  -0.01600  -0.00331  -0.01924   2.04962
    A2        2.10717   0.00030   0.00800   0.00166   0.00962   2.11678
    A3        2.10717   0.00030   0.00800   0.00165   0.00962   2.11679
    A4        2.11394   0.00181   0.01184   0.00760   0.01947   2.13341
    A5        2.11127  -0.00128  -0.02416  -0.00309  -0.02727   2.08400
    A6        2.05798  -0.00053   0.01232  -0.00451   0.00780   2.06578
    A7        2.08781  -0.00123  -0.00280  -0.00592  -0.00876   2.07905
    A8        2.09739   0.00053   0.00253   0.00206   0.00461   2.10200
    A9        2.09799   0.00070   0.00027   0.00386   0.00415   2.10214
   A10        2.09402  -0.00055  -0.00208  -0.00004  -0.00220   2.09183
   A11        2.09458   0.00027   0.00104   0.00002   0.00110   2.09568
   A12        2.09458   0.00027   0.00104   0.00002   0.00110   2.09568
   A13        2.08783  -0.00124  -0.00279  -0.00594  -0.00877   2.07906
   A14        2.09797   0.00071   0.00026   0.00388   0.00416   2.10213
   A15        2.09739   0.00053   0.00252   0.00207   0.00461   2.10200
   A16        2.11392   0.00181   0.01183   0.00761   0.01948   2.13341
   A17        2.11127  -0.00128  -0.02416  -0.00309  -0.02727   2.08400
   A18        2.05799  -0.00053   0.01233  -0.00452   0.00779   2.06578
    D1       -0.00000  -0.00000   0.00000   0.00000   0.00000   0.00000
    D2        3.14159   0.00000   0.00000   0.00000   0.00000   3.14159
    D3        3.14159  -0.00000   0.00000  -0.00000   0.00000   3.14159
    D4        0.00000  -0.00000   0.00000  -0.00000   0.00000   0.00000
    D5        0.00000  -0.00000   0.00000  -0.00000   0.00000   0.00000
    D6        3.14159  -0.00000   0.00000  -0.00000   0.00000   3.14159
    D7        3.14159   0.00000   0.00000   0.00000   0.00000   3.14159
    D8       -0.00000   0.00000   0.00000   0.00000   0.00000   0.00000
    D9        0.00000  -0.00000   0.00000  -0.00000   0.00000   0.00000
   D10        3.14159   0.00000   0.00000  -0.00000   0.00000   3.14159
   D11        3.14159  -0.00000   0.00000  -0.00000   0.00000   3.14159
   D12       -0.00000  -0.00000   0.00000  -0.00000   0.00000   0.00000
   D13        0.00000   0.00000   0.00000   0.00000  -0.00000   0.00000
   D14        3.14159   0.00000   0.00000   0.00000   0.00000   3.14159
   D15        3.14159   0.00000   0.00000  -0.00000   0.00000   3.14159
   D16       -0.00000  -0.00000   0.00000   0.00000   0.00000   0.00000
   D17       -0.00000  -0.00000   0.00000  -0.00000   0.00000   0.00000
   D18        3.14159  -0.00000   0.00000   0.00000   0.00000   3.14159
   D19        3.14159   0.00000   0.00000  -0.00000   0.00000   3.14159
   D20        0.00000  -0.00000   0.00000   0.00000   0.00000   0.00000
   D21        0.00000   0.00000   0.00000   0.00000  -0.00000   0.00000
   D22        3.14159   0.00000   0.00000   0.00000   0.00000   3.14159
   D23        3.14159  -0.00000   0.00000  -0.00000   0.00000   3.14159
   D24       -0.00000   0.00000   0.00000  -0.00000   0.00000   0.00000
         Item               Value     Threshold  Converged?
 Maximum Force            0.020744     0.000450     NO 
 RMS     Force            0.003474     0.000300     NO 
 Maximum Displacement     0.086756     0.001800     NO 
 RMS     Displacement     0.019211     0.001200     NO 
 Predicted change in Energy=-1.789141D-03
 GradGradGradGradGradGradGradGradGradGradGradGradGradGradGradGradGradGrad

                          Input orientation:                          
 ---------------------------------------------------------------------
 Center     Atomic      Atomic             Coordinates (Angstroms)
 Number     Number       Type             X           Y           Z
 ---------------------------------------------------------------------
      1          6           0       -3.096795    0.138536    0.000000
      2          6           0       -1.909181    0.832265    0.000000
      3          6           0       -0.687886    0.197205    0.000000
      4          6           0       -0.648087   -1.186934    0.000000
      5          6           0       -1.828746   -1.910442   -0.000000
      6          6           0       -3.028255   -1.235141   -0.000000
      7         17           0       -4.574228   -2.210981   -0.000000
      8         17           0       -4.698660    1.005618    0.000000
      9         17           0       -1.937463    2.660231    0.000000
     10          1           0        0.233507    0.774982    0.000000
     11          1           0        0.309783   -1.705427    0.000000
     12          1           0       -1.808687   -2.997742   -0.000000
 ---------------------------------------------------------------------
                    Distance matrix (angstroms):
                    1          2          3          4          5
     1  C    0.000000
     2  C    1.375386   0.000000
     3  C    2.409623   1.376540   0.000000
     4  C    2.784428   2.380656   1.384711   0.000000
     5  C    2.409618   2.743887   2.396610   1.384709   0.000000
     6  C    1.375386   2.350850   2.743892   2.380656   1.376537
     7  Cl   2.775435   4.045222   4.571981   4.057494   2.761882
     8  Cl   1.821484   2.794861   4.091435   4.605912   4.091432
     9  Cl   2.775427   1.828185   2.761872   4.057483   4.571966
    10  H    3.390571   2.143453   1.087562   2.150889   3.385911
    11  H    3.873625   3.371006   2.148337   1.089197   2.148334
    12  H    3.390496   3.831326   3.385836   2.150818   1.087485
                    6          7          8          9         10
     6  C    0.000000
     7  Cl   1.828195   0.000000
     8  Cl   2.794862   3.219006   0.000000
     9  Cl   4.045213   5.539065   3.218998   0.000000
    10  H    3.831407   5.659531   4.937556   2.875287   0.000000
    11  H    3.371004   4.910106   5.695109   4.910100   2.481581
    12  H    2.143388   2.875275   4.937494   5.659439   4.289989
                   11         12
    11  H    0.000000
    12  H    2.481531   0.000000
 Stoichiometry    C6H3Cl3(1-,2)
 Framework group  CS[SG(C6H3Cl3)]
 Deg. of freedom    21
 Full point group                 CS      NOp   2
 Largest Abelian subgroup         CS      NOp   2
 Largest concise Abelian subgroup C1      NOp   1
                         Standard orientation:                         
 ---------------------------------------------------------------------
 Center     Atomic      Atomic             Coordinates (Angstroms)
 Number     Number       Type             X           Y           Z
 ---------------------------------------------------------------------
      1          6           0       -0.248601   -0.000000    0.000000
      2          6           0        0.465584    1.175425    0.000000
      3          6           0        1.841934    1.198309    0.000000
      4          6           0        2.535827    0.000003    0.000000
      5          6           0        1.841934   -1.198301    0.000000
      6          6           0        0.465587   -1.175424    0.000000
      7         17           0       -0.429456   -2.769537    0.000000
      8         17           0       -2.070086   -0.000000    0.000000
      9         17           0       -0.429456    2.769528    0.000000
     10          1           0        2.377194    2.145034    0.000000
     11          1           0        3.625024    0.000001    0.000000
     12          1           0        2.377162   -2.144955    0.000000
 ---------------------------------------------------------------------
 Rotational constants (GHZ):           1.4388980           0.8239796           0.5239446
 Standard basis: 6-311++G(d,p) (5D, 7F)
 There are   189 symmetry adapted cartesian basis functions of A'  symmetry.
 There are    63 symmetry adapted cartesian basis functions of A"  symmetry.
 There are   180 symmetry adapted basis functions of A'  symmetry.
 There are    63 symmetry adapted basis functions of A"  symmetry.
   243 basis functions,   402 primitive gaussians,   252 cartesian basis functions
    46 alpha electrons       45 beta electrons
       nuclear repulsion energy       639.0251696019 Hartrees.
 NAtoms=   12 NActive=   12 NUniq=   12 SFac= 1.00D+00 NAtFMM=   60 NAOKFM=F Big=F
 Integral buffers will be    131072 words long.
 Raffenetti 2 integral format.
 Two-electron integral symmetry is turned on.
 One-electron integrals computed using PRISM.
 NBasis=   243 RedAO= T EigKep=  1.31D-06  NBF=   180    63
 NBsUse=   242 1.00D-06 EigRej=  7.50D-07 NBFU=   179    63
 Initial guess from the checkpoint file:  "frequency_chks/123ClBzAnionRadical_Freq.chk"
 B after Tr=    -0.000000   -0.000000   -0.000000
         Rot=    0.707109    0.000000    0.000000    0.707105 Ang=  90.00 deg.
 Initial guess orbital symmetries:
 Alpha Orbitals:
       Occupied  (A') (A') (A') (A') (A') (A') (A') (A') (A') (A')
                 (A') (A') (A') (A') (A') (A") (A') (A") (A") (A')
                 (A') (A') (A') (A') (A') (A') (A') (A') (A') (A')
                 (A') (A') (A') (A') (A") (A') (A') (A") (A") (A')
                 (A") (A') (A') (A") (A") (A')
       Virtual   (A') (A') (A") (A") (A') (A') (A') (A") (A') (A')
                 (A') (A") (A") (A') (A') (A") (A') (A') (A') (A")
                 (A') (A") (A') (A') (A') (A") (A') (A") (A') (A')
                 (A") (A') (A') (A') (A') (A") (A') (A') (A') (A')
                 (A') (A') (A') (A') (A') (A') (A') (A') (A') (A')
                 (A') (A") (A') (A') (A') (A") (A') (A') (A") (A')
                 (A') (A") (A') (A') (A") (A") (A") (A") (A') (A')
                 (A') (A") (A') (A') (A') (A') (A') (A") (A') (A')
                 (A') (A') (A') (A") (A') (A') (A") (A") (A') (A")
                 (A') (A') (A') (A") (A') (A') (A') (A") (A') (A")
                 (A') (A') (A") (A') (A') (A') (A") (A') (A") (A")
                 (A') (A') (A') (A') (A') (A") (A') (A") (A') (A')
                 (A') (A") (A') (A') (A") (A') (A") (A') (A") (A')
                 (A") (A') (A') (A') (A") (A") (A') (A") (A') (A")
                 (A") (A') (A') (A') (A') (A') (A') (A') (A') (A')
                 (A") (A') (A') (A') (A') (A') (A') (A") (A") (A")
                 (A") (A") (A') (A') (A') (A') (A') (A') (A') (A')
                 (A') (A') (A') (A') (A') (A') (A') (A') (A') (A')
                 (A') (A') (A') (A') (A") (A") (A") (A') (A') (A')
                 (A') (A') (A') (A') (A') (A')
 Beta  Orbitals:
       Occupied  (A') (A') (A') (A') (A') (A') (A') (A') (A') (A')
                 (A') (A') (A') (A') (A') (A") (A') (A") (A") (A')
                 (A') (A') (A') (A') (A') (A') (A') (A') (A') (A')
                 (A') (A') (A') (A") (A') (A') (A') (A") (A") (A')
                 (A") (A') (A') (A") (A")
       Virtual   (A') (A") (A") (A') (A') (A') (A') (A') (A") (A')
                 (A") (A') (A') (A") (A') (A") (A') (A') (A") (A')
                 (A") (A') (A') (A") (A') (A') (A') (A") (A') (A')
                 (A") (A') (A') (A') (A') (A") (A') (A') (A') (A')
                 (A') (A') (A') (A') (A') (A') (A') (A') (A') (A')
                 (A') (A') (A") (A') (A') (A') (A") (A') (A') (A")
                 (A') (A') (A") (A') (A') (A") (A") (A") (A") (A')
                 (A') (A') (A") (A') (A') (A') (A') (A') (A") (A')
                 (A') (A') (A') (A') (A") (A') (A') (A") (A") (A")
                 (A') (A') (A') (A') (A") (A') (A') (A') (A") (A')
                 (A") (A') (A') (A") (A') (A') (A') (A") (A') (A")
                 (A') (A") (A') (A') (A') (A') (A") (A') (A") (A')
                 (A') (A') (A") (A') (A') (A") (A') (A") (A') (A")
                 (A') (A") (A') (A') (A') (A") (A") (A') (A") (A')
                 (A") (A") (A') (A') (A') (A') (A') (A') (A') (A')
                 (A') (A") (A') (A') (A') (A') (A') (A') (A") (A")
                 (A") (A") (A") (A') (A') (A') (A') (A') (A') (A')
                 (A') (A') (A') (A') (A') (A') (A') (A') (A') (A')
                 (A') (A') (A') (A') (A') (A") (A") (A") (A') (A')
                 (A') (A') (A') (A') (A') (A') (A')
 Initial guess <Sx>= 0.0000 <Sy>= 0.0000 <Sz>= 0.5000 <S**2>= 0.7511 S= 0.5006
 ExpMin= 3.60D-02 ExpMax= 1.06D+05 ExpMxC= 3.62D+03 IAcc=3 IRadAn=         5 AccDes= 0.00D+00
 Harris functional with IExCor= 1009 and IRadAn=       5 diagonalized for initial guess.
 HarFok:  IExCor= 1009 AccDes= 0.00D+00 IRadAn=         5 IDoV= 1 UseB2=F ITyADJ=14
 ICtDFT=  3500011 ScaDFX=  1.000000  1.000000  1.000000  1.000000
 FoFCou: FMM=F IPFlag=           0 FMFlag=      100000 FMFlg1=           0
         NFxFlg=           0 DoJE=T BraDBF=F KetDBF=T FulRan=T
         wScrn=  0.000000 ICntrl=       500 IOpCl=  0 I1Cent=   200000004 NGrid=           0
         NMat0=    1 NMatS0=      1 NMatT0=    0 NMatD0=    1 NMtDS0=    0 NMtDT0=    0
 Petite list used in FoFCou.
 Keep R1 and R2 ints in memory in symmetry-blocked form, NReq=695666862.
 Requested convergence on RMS density matrix=1.00D-08 within 128 cycles.
 Requested convergence on MAX density matrix=1.00D-06.
 Requested convergence on             energy=1.00D-06.
 No special actions if energy rises.
 Rare condition: small coef for last iteration:  0.000D+00
 Rare condition: small coef for last iteration:  0.000D+00
 SCF Done:  E(UM062X) =  -1610.97612819     A.U. after   33 cycles
            NFock= 33  Conv=0.82D-08     -V/T= 2.0022
 <Sx>= 0.0000 <Sy>= 0.0000 <Sz>= 0.5000 <S**2>= 0.7523 S= 0.5012
 <L.S>=  0.00000000000    
 Annihilation of the first spin contaminant:
 S**2 before annihilation     0.7523,   after     0.7500
 Calling FoFJK, ICntrl=      2127 FMM=F ISym2X=1 I1Cent= 0 IOpClX= 1 NMat=1 NMatS=1 NMatT=0.
 ***** Axes restored to original set *****
 -------------------------------------------------------------------
 Center     Atomic                   Forces (Hartrees/Bohr)
 Number     Number              X              Y              Z
 -------------------------------------------------------------------
      1        6           0.043173801   -0.023369866   -0.000000000
      2        6          -0.021011319   -0.021388143   -0.000000000
      3        6           0.007957178    0.004540109   -0.000000000
      4        6           0.006954231   -0.003761094   -0.000000000
      5        6           0.000549203   -0.009100339   -0.000000000
      6        6           0.006417050    0.029290691   -0.000000000
      7       17          -0.016053580   -0.015449695   -0.000000000
      8       17          -0.031302958    0.016943894   -0.000000000
[...]
    R6        2.62953   0.00001   0.00000   0.00002   0.00002   2.62955
    R7        2.04830   0.00002   0.00000   0.00007   0.00007   2.04837
    R8        2.62953   0.00001   0.00000   0.00002   0.00002   2.62955
    R9        2.04877   0.00000   0.00000  -0.00000  -0.00000   2.04877
   R10        2.63359  -0.00003   0.00000  -0.00008  -0.00008   2.63351
   R11        2.04830   0.00002   0.00000   0.00007   0.00007   2.04837
   R12        3.34947   0.00004   0.00000   0.00006   0.00006   3.34953
    A1        2.04504   0.00003   0.00000   0.00023   0.00023   2.04527
    A2        2.11907  -0.00001   0.00000  -0.00011  -0.00011   2.11896
    A3        2.11907  -0.00001   0.00000  -0.00012  -0.00012   2.11896
    A4        2.14277  -0.00004   0.00000  -0.00022  -0.00022   2.14255
    A5        2.10149   0.00001   0.00000   0.00002   0.00002   2.10151
    A6        2.03893   0.00003   0.00000   0.00020   0.00020   2.03912
    A7        2.06943   0.00002   0.00000   0.00011   0.00011   2.06954
    A8        2.09963  -0.00000   0.00000   0.00004   0.00004   2.09967
    A9        2.11413  -0.00002   0.00000  -0.00015  -0.00015   2.11397
   A10        2.09694   0.00001   0.00000  -0.00001  -0.00001   2.09693
   A11        2.09312  -0.00000   0.00000   0.00001   0.00001   2.09313
   A12        2.09312  -0.00000   0.00000   0.00001   0.00001   2.09313
   A13        2.06943   0.00002   0.00000   0.00011   0.00011   2.06954
   A14        2.11413  -0.00002   0.00000  -0.00015  -0.00015   2.11397
   A15        2.09963  -0.00000   0.00000   0.00004   0.00004   2.09967
   A16        2.14277  -0.00004   0.00000  -0.00022  -0.00022   2.14255
   A17        2.10149   0.00001   0.00000   0.00002   0.00002   2.10151
   A18        2.03893   0.00003   0.00000   0.00020   0.00020   2.03912
    D1       -0.00000   0.00000   0.00000   0.00000   0.00000   0.00000
    D2        3.14159  -0.00000   0.00000   0.00000   0.00000   3.14159
    D3        3.14159  -0.00000   0.00000   0.00000   0.00000   3.14159
    D4        0.00000  -0.00000   0.00000   0.00000  -0.00000   0.00000
    D5        0.00000   0.00000   0.00000  -0.00000  -0.00000   0.00000
    D6        3.14159   0.00000   0.00000  -0.00000   0.00000   3.14159
    D7        3.14159   0.00000   0.00000  -0.00000   0.00000   3.14159
    D8       -0.00000   0.00000   0.00000  -0.00000   0.00000   0.00000
    D9        0.00000   0.00000   0.00000   0.00000   0.00000   0.00000
   D10        3.14159  -0.00000   0.00000  -0.00000   0.00000   3.14159
   D11        3.14159   0.00000   0.00000  -0.00000   0.00000   3.14159
   D12       -0.00000   0.00000   0.00000  -0.00000   0.00000   0.00000
   D13       -0.00000   0.00000   0.00000  -0.00000   0.00000   0.00000
   D14        3.14159   0.00000   0.00000  -0.00000   0.00000   3.14159
   D15        3.14159  -0.00000   0.00000  -0.00000   0.00000   3.14159
   D16       -0.00000  -0.00000   0.00000  -0.00000   0.00000   0.00000
   D17       -0.00000   0.00000   0.00000   0.00000   0.00000   0.00000
   D18        3.14159   0.00000   0.00000   0.00000   0.00000   3.14159
   D19        3.14159  -0.00000   0.00000   0.00000   0.00000   3.14159
   D20       -0.00000   0.00000   0.00000   0.00000   0.00000   0.00000
   D21       -0.00000  -0.00000   0.00000  -0.00000   0.00000   0.00000
   D22        3.14159  -0.00000   0.00000   0.00000   0.00000   3.14159
   D23        3.14159   0.00000   0.00000  -0.00000   0.00000   3.14159
   D24        0.00000   0.00000   0.00000   0.00000   0.00000   0.00000
         Item               Value     Threshold  Converged?
 Maximum Force            0.000075     0.000450     YES
 RMS     Force            0.000023     0.000300     YES
 Maximum Displacement     0.000868     0.001800     YES
 RMS     Displacement     0.000174     0.001200     YES
 Predicted change in Energy=-6.887099D-08
 Optimization completed.
    -- Stationary point found.
                           ----------------------------
                           !   Optimized Parameters   !
                           ! (Angstroms and Degrees)  !
 --------------------------                            --------------------------
 ! Name  Definition              Value          Derivative Info.                !
 --------------------------------------------------------------------------------
 ! R1    R(1,2)                  1.3744         -DE/DX =    0.0001              !
 ! R2    R(1,6)                  1.3744         -DE/DX =    0.0001              !
 ! R3    R(1,8)                  2.4233         -DE/DX =    0.0                 !
 ! R4    R(2,3)                  1.3936         -DE/DX =    0.0                 !
 ! R5    R(2,9)                  1.7725         -DE/DX =    0.0                 !
 ! R6    R(3,4)                  1.3915         -DE/DX =    0.0                 !
 ! R7    R(3,10)                 1.0839         -DE/DX =    0.0                 !
 ! R8    R(4,5)                  1.3915         -DE/DX =    0.0                 !
 ! R9    R(4,11)                 1.0842         -DE/DX =    0.0                 !
 ! R10   R(5,6)                  1.3936         -DE/DX =    0.0                 !
 ! R11   R(5,12)                 1.0839         -DE/DX =    0.0                 !
 ! R12   R(6,7)                  1.7725         -DE/DX =    0.0                 !
 ! A1    A(2,1,6)              117.1721         -DE/DX =    0.0                 !
 ! A2    A(2,1,8)              121.4139         -DE/DX =    0.0                 !
 ! A3    A(6,1,8)              121.414          -DE/DX =    0.0                 !
 ! A4    A(1,2,3)              122.7715         -DE/DX =    0.0                 !
 ! A5    A(1,2,9)              120.4066         -DE/DX =    0.0                 !
 ! A6    A(3,2,9)              116.8219         -DE/DX =    0.0                 !
 ! A7    A(2,3,4)              118.5696         -DE/DX =    0.0                 !
 ! A8    A(2,3,10)             120.2999         -DE/DX =    0.0                 !
 ! A9    A(4,3,10)             121.1306         -DE/DX =    0.0                 !
 ! A10   A(3,4,5)              120.1457         -DE/DX =    0.0                 !
 ! A11   A(3,4,11)             119.9271         -DE/DX =    0.0                 !
 ! A12   A(5,4,11)             119.9271         -DE/DX =    0.0                 !
 ! A13   A(4,5,6)              118.5696         -DE/DX =    0.0                 !
 ! A14   A(4,5,12)             121.1306         -DE/DX =    0.0                 !
 ! A15   A(6,5,12)             120.2998         -DE/DX =    0.0                 !
 ! A16   A(1,6,5)              122.7715         -DE/DX =    0.0                 !
 ! A17   A(1,6,7)              120.4066         -DE/DX =    0.0                 !
 ! A18   A(5,6,7)              116.8219         -DE/DX =    0.0                 !
 ! D1    D(6,1,2,3)              0.0            -DE/DX =    0.0                 !
 ! D2    D(6,1,2,9)            180.0            -DE/DX =    0.0                 !
 ! D3    D(8,1,2,3)            180.0            -DE/DX =    0.0                 !
 ! D4    D(8,1,2,9)              0.0            -DE/DX =    0.0                 !
 ! D5    D(2,1,6,5)              0.0            -DE/DX =    0.0                 !
 ! D6    D(2,1,6,7)            180.0            -DE/DX =    0.0                 !
 ! D7    D(8,1,6,5)            180.0            -DE/DX =    0.0                 !
 ! D8    D(8,1,6,7)              0.0            -DE/DX =    0.0                 !
 ! D9    D(1,2,3,4)              0.0            -DE/DX =    0.0                 !
 ! D10   D(1,2,3,10)           180.0            -DE/DX =    0.0                 !
 ! D11   D(9,2,3,4)            180.0            -DE/DX =    0.0                 !
 ! D12   D(9,2,3,10)             0.0            -DE/DX =    0.0                 !
 ! D13   D(2,3,4,5)              0.0            -DE/DX =    0.0                 !
 ! D14   D(2,3,4,11)           180.0            -DE/DX =    0.0                 !
 ! D15   D(10,3,4,5)           180.0            -DE/DX =    0.0                 !
 ! D16   D(10,3,4,11)            0.0            -DE/DX =    0.0                 !
 ! D17   D(3,4,5,6)              0.0            -DE/DX =    0.0                 !
 ! D18   D(3,4,5,12)           180.0            -DE/DX =    0.0                 !
 ! D19   D(11,4,5,6)           180.0            -DE/DX =    0.0                 !
 ! D20   D(11,4,5,12)            0.0            -DE/DX =    0.0                 !
 ! D21   D(4,5,6,1)              0.0            -DE/DX =    0.0                 !
 ! D22   D(4,5,6,7)            180.0            -DE/DX =    0.0                 !
 ! D23   D(12,5,6,1)           180.0            -DE/DX =    0.0                 !
 ! D24   D(12,5,6,7)             0.0            -DE/DX =    0.0                 !
 --------------------------------------------------------------------------------
 GradGradGradGradGradGradGradGradGradGradGradGradGradGradGradGradGradGrad


 ----------------------------------------------------------------------

 Electric dipole moment (input orientation):
 (Debye = 10**-18 statcoulomb cm , SI units = C m)
                  (au)            (Debye)         (10**-30 SI)
   Tot        0.315823D+01      0.802741D+01      0.267766D+02
   x          0.277743D+01      0.705953D+01      0.235481D+02
   y         -0.150341D+01     -0.382129D+01     -0.127465D+02
   z          0.000000D+00      0.000000D+00      0.000000D+00

 Dipole polarizability, Alpha (input orientation).
 (esu units = cm**3 , SI units = C**2 m**2 J**-1)
 Alpha(0;0):
               (au)            (10**-24 esu)      (10**-40 SI)
   iso        0.129163D+03      0.191400D+02      0.212961D+02
   aniso      0.939143D+02      0.139167D+02      0.154844D+02
   xx         0.166475D+03      0.246690D+02      0.274479D+02
   yx        -0.104965D+02     -0.155542D+01     -0.173064D+01
   yy         0.152765D+03      0.226374D+02      0.251875D+02
   zx         0.000000D+00      0.000000D+00      0.000000D+00
   zy         0.000000D+00      0.000000D+00      0.000000D+00
   zz         0.682501D+02      0.101136D+02      0.112529D+02

 ----------------------------------------------------------------------

 Dipole orientation:
     6         -1.21651359         -2.24741158         -5.20993612
     6         -0.16138253         -0.29814131         -3.85622963
     6         -0.13167944         -0.24326724         -1.22338429
     6         -1.21651053         -2.24740593          0.08848684
     6         -2.30134299         -4.25154713         -1.22337868
     6         -2.27164324         -4.19667922         -3.85622457
    17         -3.67710834         -6.79316360         -5.43795665
    17         -1.21651250         -2.24740956         -9.78925136
    17          1.24408165          2.29834136         -5.43796796
     1          0.72159762          1.33309389         -0.23215608
     1         -1.21650927         -2.24740359          2.13726090
     1         -3.15461892         -5.82790618         -0.23214703

 Electric dipole moment (dipole orientation):
 (Debye = 10**-18 statcoulomb cm , SI units = C m)
                  (au)            (Debye)         (10**-30 SI)
   Tot        0.315823D+01      0.802741D+01      0.267766D+02
   x          0.000000D+00      0.000000D+00      0.000000D+00
   y          0.000000D+00      0.000000D+00      0.000000D+00
   z          0.315823D+01      0.802741D+01      0.267766D+02

 Dipole polarizability, Alpha (dipole orientation).
 (esu units = cm**3 , SI units = C**2 m**2 J**-1)
 Alpha(0;0):
               (au)            (10**-24 esu)      (10**-40 SI)
   iso        0.129163D+03      0.191400D+02      0.212961D+02
   aniso      0.939143D+02      0.139167D+02      0.154844D+02
   xx         0.861141D+02      0.127608D+02      0.141983D+02
   yx         0.330023D+02      0.489043D+01      0.544134D+01
   yy         0.129219D+03      0.191483D+02      0.213054D+02
   zx        -0.180479D-04     -0.267443D-05     -0.297570D-05
   zy        -0.333421D-04     -0.494079D-05     -0.549737D-05
   zz         0.172156D+03      0.255109D+02      0.283847D+02

 ----------------------------------------------------------------------
 1\1\GINC-SH03-01N01\Freq\UM062X\6-311++G(d,p)\C6H3Cl3(1-,2)\JLAPIER\09
 -Dec-2025\0\\#N Geom=AllCheck Guess=TCheck SCRF=Check GenChk UM062X/6-
 311++G(d,p) Freq\\3-Chloro-Benzene Anion Radical (123)\\-1,2\C,-3.0683
 180282,0.1231278878,0.\C,-1.8799874389,0.8136323974,0.\C,-0.6390125196
 ,0.1794446526,0.\C,-0.6025702126,-1.211566242,0.\C,-1.787146409,-1.941
 6471351,0.\C,-2.9966869626,-1.249386294,0.\Cl,-4.476523427,-2.22494106
 94,0.\Cl,-5.1994098926,1.2766795372,0.\Cl,-1.8723470988,2.586079018,0.
 \H,0.2738136995,0.7639240908,0.\H,0.3508758305,-1.7276606159,0.\H,-1.7
 773875446,-3.0255162347,0.\\Version=ES64L-G16RevB.01\State=2-A'\HF=-16
 11.0024715\S2=0.758488\S2-1=0.\S2A=0.750051\RMSD=6.589e-09\RMSF=3.406e
 -05\ZeroPoint=0.0690408\Thermal=0.0770603\Dipole=2.7774345,-1.5034126,
 0.\DipoleDeriv=0.3702209,-0.740682,0.,-0.7406823,-0.5972036,0.,0.,0.,-
 0.0501224,0.2145772,0.3205097,0.,0.7906966,1.2037945,0.,0.,0.,-0.02635
 53,-0.0984664,0.025491,0.,-0.1355035,-0.1321384,0.,0.,0.,-0.1474011,-0
 .0165385,0.0031534,0.,0.0031532,-0.0124199,0.,0.,0.,-0.1718506,-0.0717
 06,-0.1180275,0.,0.0429671,-0.158899,0.,0.,0.,-0.1474012,0.399316,0.91
 13429,0.,0.4411562,1.0190564,0.,0.,0.,-0.0263552,-0.520339,-0.6248293,
 0.,-0.3050702,-0.6076614,0.,0.,0.,-0.1404698,-0.9133488,0.2280095,0.,0
 .22801,-0.6155394,0.,0.,0.,-0.5598214,-0.1558353,-0.0670259,0.,-0.3867
 85,-0.9721649,0.,0.,0.,-0.1404701,-0.1220356,-0.0515976,0.,-0.0666356,
 0.0175075,0.,0.,0.,0.13473,-0.11576,0.0810575,0.,0.0810575,-0.0098882,
 0.,0.,0.,0.1407871,0.0299154,0.0325983,0.,0.0476362,-0.1344437,0.,0.,0
 .,0.13473\Polar=166.4745159,-10.4964778,152.7648984,0.,0.,68.2501424\Q
 uadrupole=-4.7949281,-1.4789875,6.2739156,2.538781,0.,0.\PG=CS [SG(C6H
 3Cl3)]\NImag=1\\0.42261139,0.11703797,0.57547831,0.,0.,0.06657044,-0.2
 7386433,-0.09846290,0.,0.62789284,-0.12212789,-0.13205345,0.,0.0035450
 3,0.45341316,0.,0.,-0.05064834,0.,0.,0.11982729,-0.05389406,-0.0391032
 8,0.,-0.28607877,0.12114427,0.,0.71101074,0.02286682,0.06248758,0.,0.0
 4081881,-0.13907209,0.,0.04843705,0.69671885,0.,0.,0.01441922,0.,0.,-0
 .06256404,0.,0.,0.12494426,-0.01703133,-0.03336638,0.,0.03058629,0.024
 46347,0.,-0.12506198,0.04042040,0.,0.72731772,-0.03336638,-0.06061220,
 0.,0.09533444,-0.02525035,0.,-0.03303080,-0.34394559,0.,-0.03074835,0.
 68715580,0.,0.,-0.00237795,0.,0.,0.00649916,0.,0.,-0.05958688,0.,0.,0.
 12792892,0.03512492,0.08100208,0.,-0.07896165,0.00264257,0.,0.03677138
 ,-0.08129617,0.,-0.28188690,-0.06199659,0.,0.65664172,0.01903196,-0.02
 653140,0.,-0.00562789,-0.00041950,0.,-0.02407714,-0.03204434,0.,-0.135
 44778,-0.18712108,0.,0.01293110,0.75108823,0.,0.,0.01441921,0.,0.,-0.0
 0362649,0.,0.,0.00666085,0.,0.,-0.05958684,0.,0.,0.12494419,-0.0734631
 9,0.00874711,0.,0.03381451,-0.03083093,0.,-0.02253539,0.03949262,0.,-0
 .06340111,-0.03691647,0.,-0.25717257,0.14002147,0.,0.50233344,0.032412
 12,-0.33245460,0.,-0.06947549,-0.03169213,0.,0.03122216,-0.05684574,0.
 ,0.03395448,0.06873705,0.,0.05969598,-0.16797787,0.,-0.07845293,0.5789
 7262,0.,0.,-0.05064829,0.,0.,-0.00345577,0.,0.,-0.00362650,0.,0.,0.006
 49915,0.,0.,-0.06256404,0.,0.,0.11982721,-0.00954836,-0.02670801,0.,-0
 .00133254,0.00198092,0.,-0.00138738,-0.00229332,0.,-0.00104435,0.00703
 163,0.,-0.04258007,-0.02696557,0.,-0.10694398,-0.02342509,0.,0.1573463
 1,-0.03212932,-0.03365117,0.,0.00006193,-0.00203501,0.,-0.00185159,0.0
 0003221,0.,0.00007859,0.00071739,0.,-0.00164620,0.00131617,0.,-0.04183
 013,-0.04678096,0.,0.07307358,0.08291544,0.,0.,-0.00046809,0.,0.,0.006
 68583,0.,0.,-0.00093832,0.,0.,0.00460444,0.,0.,0.00498175,0.,0.,-0.021
 52463,0.,0.,0.00956402,-0.02398491,0.01251737,0.,0.00080559,0.01220658
 ,0.,0.00079620,-0.00228732,0.,-0.00042443,0.00034923,0.,0.00225347,0.0
 0099197,0.,-0.01041581,-0.01006852,0.,0.00649347,0.00424797,0.,0.02827
 644,0.01251744,-0.00763563,0.,-0.00274020,-0.00901959,0.,0.00004025,0.
 00140753,0.,0.00034923,0.00003171,0.,-0.00133562,-0.00004977,0.,0.0048
 7823,0.00220193,0.,-0.00085224,-0.00367305,0.,-0.01247960,0.01197645,0
 .,0.,0.00087292,0.,0.,-0.00077887,0.,0.,0.00023924,0.,0.,-0.00022361,0
 .,0.,0.00023924,0.,0.,-0.00077887,0.,0.,0.00040979,0.,0.,-0.00041951,0
 .00049147,-0.02557260,0.,-0.03489399,0.00522326,0.,0.00129082,0.027004
 36,0.,-0.00306447,-0.00124068,0.,0.00150536,0.00003756,0.,-0.00276022,
 -0.00087044,0.,0.00019540,-0.00043601,0.,-0.00218811,-0.00142166,0.,0.
 03826113,-0.02015136,-0.04369104,0.,0.02362830,-0.11883036,0.,0.001685
 03,-0.04255479,0.,0.00571237,0.00273752,0.,-0.00040418,-0.00286054,0.,
 0.00104857,-0.00060732,0.,0.00018321,0.00003031,0.,-0.00652186,0.00500
 852,0.,-0.00469694,0.20200015,0.,0.,-0.00046809,0.,0.,-0.02152469,0.,0
 .,0.00498176,0.,0.,0.00460444,0.,0.,-0.00093832,0.,0.,0.00668583,0.,0.
 ,-0.00012124,0.,0.,0.00040979,0.,0.,0.00956407,-0.00409439,0.00124888,
 0.,-0.01787130,-0.01743327,0.,-0.25901480,-0.12860390,0.,0.00500143,0.
 00319623,0.,0.00167351,0.00083618,0.,0.00042206,0.00214817,0.,-0.00019
 479,-0.00030258,0.,-0.00089283,0.00063505,0.,0.00091907,-0.00063857,0.
 ,0.27335319,0.00242703,0.00054738,0.,0.01305580,0.00789387,0.,-0.13062
 248,-0.13801308,0.,-0.02686679,-0.01000851,0.,0.00149320,-0.00513044,0
 .,0.00097662,-0.00100784,0.,-0.00010140,0.00019121,0.,0.00005624,0.000
 01846,0.,0.00114407,0.00064224,0.,0.13920479,0.14453082,0.,0.,0.004889
 21,0.,0.,0.00262149,0.,0.,-0.03416802,0.,0.,0.00227997,0.,0.,0.0074354
 9,0.,0.,0.00017387,0.,0.,-0.00121785,0.,0.,0.00007184,0.,0.,-0.0021364
 4,0.,0.,0.02359064,0.00017609,-0.00079330,0.,0.00191424,-0.00020175,0.
 ,0.00226586,-0.00224119,0.,-0.27630670,0.11804921,0.,-0.01785572,0.015
 99098,0.,-0.00207237,-0.00330064,0.,-0.00149730,-0.00013244,0.,-0.0001
 4861,0.00014236,0.,-0.00001720,-0.00004068,0.,0.00053576,0.00051585,0.
 ,0.29224024,-0.00079330,-0.00086007,0.,-0.00069712,-0.00435966,0.,0.02
 913170,-0.00887621,0.,0.11804921,-0.12211884,0.,-0.01538191,0.01124538
 ,0.,-0.00280527,-0.00037305,0.,-0.00100728,-0.00013026,0.,0.00014236,0
 .00003734,0.,0.00083416,-0.00161036,0.,-0.00057269,0.00082667,0.,-0.12
 756589,0.12562235,0.,0.,-0.00144946,0.,0.,0.00679054,0.,0.,0.00220293,
 0.,0.,-0.03292076,0.,0.,0.00220293,0.,0.,0.00679054,0.,0.,0.00016074,0
 .,0.,-0.00011379,0.,0.,0.00016074,0.,0.,-0.00409372,0.,0.,0.02436303,-
 0.00252329,0.00345306,0.,-0.00201089,-0.00061226,0.,-0.00416261,-0.002
 31817,0.,0.00531584,-0.02666147,0.,-0.05551344,0.00227715,0.,0.0021946
 2,0.02616019,0.,0.00049359,0.00086620,0.,-0.00057048,0.00026676,0.,0.0
 0026075,0.00019610,0.,0.00016309,-0.00128292,0.,0.00076572,0.00066603,
 0.,0.05558711,0.00227491,-0.00102371,0.,0.00055929,0.00142511,0.,-0.00
 297518,0.00070567,0.,0.00340155,-0.01032290,0.,0.00429575,-0.34151484,
 0.,-0.00432889,-0.01217208,0.,-0.00091643,0.00106773,0.,0.00084557,-0.
 00030390,0.,-0.00000508,-0.00026434,0.,0.00028171,-0.00049077,0.,-0.00
 042252,0.00059671,0.,-0.00301066,0.36229731,0.,0.,0.00488921,0.,0.,0.0
 0017387,0.,0.,0.00743550,0.,0.,0.00227997,0.,0.,-0.03416797,0.,0.,0.00
 262150,0.,0.,-0.00213644,0.,0.,0.00007184,0.,0.,-0.00121785,0.,0.,0.00
 055351,0.,0.,-0.00409372,0.,0.,0.02359058\\-0.00001918,0.00001034,0.,-
 0.00009296,-0.00004429,0.,0.00007682,0.00001606,0.,-0.00002711,0.00001
 458,0.,0.00002882,-0.00007316,0.,-0.00001401,0.00010183,0.,0.00004059,
 0.00001882,0.,0.00003600,-0.00001944,0.,0.00000647,-0.00004406,0.,-0.0
 0002372,-0.00000448,0.,-0.00000247,0.00000135,0.,-0.00000926,0.0000224
 7,0.\\\@


 TWO ROADS DIVERGED IN A WOOD, AND I--
 I TOOK THE ONE LESS TRAVELED BY,
 AND THAT HAS MADE ALL THE DIFFERENCE.

                       -- ROBERT FROST
 Job cpu time:       0 days  0 hours 29 minutes 36.3 seconds.
 Elapsed time:       0 days  0 hours  7 minutes 26.3 seconds.
 File lengths (MBytes):  RWF=    190 Int=      0 D2E=      0 Chk=     34 Scr=      1
 Normal termination of Gaussian 16 at Tue Dec  9 13:47:03 2025.
