 Entering Gaussian System, Link 0=g16
 Initial command:
 /share/software/user/restricted/gaussian/g16.B01/l1.exe "/home/users/jlapier/Chloroaromatics/Gau-26549.inp" -scrdir="/home/users/jlapier/Chloroaromatics/"
 Entering Link 1 = /share/software/user/restricted/gaussian/g16.B01/l1.exe PID=     26550.
  
 Copyright (c) 1988-2017, Gaussian, Inc.  All Rights Reserved.
  
 This is part of the Gaussian(R) 16 program.  It is based on
 the Gaussian(R) 09 system (copyright 2009, Gaussian, Inc.),
 the Gaussian(R) 03 system (copyright 2003, Gaussian, Inc.),
 the Gaussian(R) 98 system (copyright 1998, Gaussian, Inc.),
 the Gaussian(R) 94 system (copyright 1995, Gaussian, Inc.),
 the Gaussian 92(TM) system (copyright 1992, Gaussian, Inc.),
 the Gaussian 90(TM) system (copyright 1990, Gaussian, Inc.),
 the Gaussian 88(TM) system (copyright 1988, Gaussian, Inc.),
 the Gaussian 86(TM) system (copyright 1986, Carnegie Mellon
 University), and the Gaussian 82(TM) system (copyright 1983,
 Carnegie Mellon University). Gaussian is a federally registered
 trademark of Gaussian, Inc.
  
 This software contains proprietary and confidential information,
 including trade secrets, belonging to Gaussian, Inc.
  
 This software is provided under written license and may be
 used, copied, transmitted, or stored only in accord with that
 written license.
  
 The following legend is applicable only to US Government
 contracts under FAR:
  
                    RESTRICTED RIGHTS LEGEND
  
 Use, reproduction and disclosure by the US Government is
 subject to restrictions as set forth in subparagraphs (a)
 and (c) of the Commercial Computer Software - Restricted
 Rights clause in FAR 52.227-19.
  
 Gaussian, Inc.
 340 Quinnipiac St., Bldg. 40, Wallingford CT 06492
  
  
 ---------------------------------------------------------------
 Warning -- This program may not be used in any manner that
 competes with the business of Gaussian, Inc. or will provide
 assistance to any competitor of Gaussian, Inc.  The licensee
 of this program is prohibited from giving any competitor of
 Gaussian, Inc. access to this program.  By using this program,
 the user acknowledges that Gaussian, Inc. is engaged in the
 business of creating and licensing software in the field of
 computational chemistry and represents and warrants to the
 licensee that it is not a competitor of Gaussian, Inc. and that
 it will not use this program in any manner prohibited above.
 ---------------------------------------------------------------
  

 Cite this work as:
 Gaussian 16, Revision B.01,
 M. J. Frisch, G. W. Trucks, H. B. Schlegel, G. E. Scuseria, 
 M. A. Robb, J. R. Cheeseman, G. Scalmani, V. Barone, 
 G. A. Petersson, H. Nakatsuji, X. Li, M. Caricato, A. V. Marenich, 
 J. Bloino, B. G. Janesko, R. Gomperts, B. Mennucci, H. P. Hratchian, 
 J. V. Ortiz, A. F. Izmaylov, J. L. Sonnenberg, D. Williams-Young, 
 F. Ding, F. Lipparini, F. Egidi, J. Goings, B. Peng, A. Petrone, 
 T. Henderson, D. Ranasinghe, V. G. Zakrzewski, J. Gao, N. Rega, 
 G. Zheng, W. Liang, M. Hada, M. Ehara, K. Toyota, R. Fukuda, 
 J. Hasegawa, M. Ishida, T. Nakajima, Y. Honda, O. Kitao, H. Nakai, 
 T. Vreven, K. Throssell, J. A. Montgomery, Jr., J. E. Peralta, 
 F. Ogliaro, M. J. Bearpark, J. J. Heyd, E. N. Brothers, K. N. Kudin, 
 V. N. Staroverov, T. A. Keith, R. Kobayashi, J. Normand, 
 K. Raghavachari, A. P. Rendell, J. C. Burant, S. S. Iyengar, 
 J. Tomasi, M. Cossi, J. M. Millam, M. Klene, C. Adamo, R. Cammi, 
 J. W. Ochterski, R. L. Martin, K. Morokuma, O. Farkas, 
 J. B. Foresman, and D. J. Fox, Gaussian, Inc., Wallingford CT, 2016.
 
 ******************************************
 Gaussian 16:  ES64L-G16RevB.01 20-Dec-2017
                10-Dec-2025 
 ******************************************
 %mem=8GB
 %nprocshare=4
 Will use up to    4 processors via shared memory.
 %oldchk=geometry_chks/124-12_-ClBzNeutralRadical.chk
 %chk=frequency_chks/124-12_-ClBzNeutralRadical_Freq.chk
 Copying data from "geometry_chks/124-12_-ClBzNeutralRadical.chk" to current chk file "frequency_chks/124-12_-ClBzNeutralRadical_Freq.chk"
 IOpt=  2 FromEx=T IUOpen= 4 IOptOp= 5 NList=   0 IFRang= 0 IUIn= 4 IUOut= 2.
 -------------------------------------------------------
 # opt freq 6-311++g(d,p) guess=read geom=allcheck m062x
 -------------------------------------------------------
 1/18=20,19=15,26=3,29=7,38=1/1,3;
 2/9=110,12=2,40=1/2;
 3/5=4,6=6,7=1111,11=2,14=-4,25=1,30=1,71=1,74=-55,116=-2/1,2,3;
 4/5=1/1;
 5/5=2,38=6/2;
 6/7=2,8=2,9=2,10=2,28=1/1;
 7//1,2,3,16;
 1/18=20,19=15,26=3/3(2);
 2/9=110/2;
 99//99;
 2/9=110/2;
 3/5=4,6=6,7=1111,11=2,14=-2,25=1,30=1,71=1,74=-55/1,2,3;
 4/5=5,16=3,69=1/1;
 5/5=2,38=5/2;
 7//1,2,3,16;
 1/18=20,19=15,26=3/3(-5);
 2/9=110/2;
 6/7=2,8=2,9=2,10=2,19=2,28=1/1;
 99/9=1/99;
 Structure from the checkpoint file:  "frequency_chks/124-12_-ClBzNeutralRadical_Freq.chk"
 -------------------------------
 Neutral Radical (removed 4) 12_
 -------------------------------
 Charge =  0 Multiplicity = 2
 Redundant internal coordinates found in file.  (old form).
 C,0,-3.1740477845,0.1865418177,0.
 C,0,-1.9709261713,0.9296129205,0.
 C,0,-0.8277079692,0.1765505048,0.
 C,0,-0.6835410521,-1.1872483018,0.
 C,0,-1.8889876121,-1.911216289,0.
 C,0,-3.1197969546,-1.226390117,0.
 Cl,0,-4.5477948564,-2.1386194599,0.
 Cl,0,-4.6487746128,1.010612291,0.
 H,0,-1.9648105527,2.0270347898,0.
 H,0,0.2936933523,-1.6847144058,0.
 H,0,-1.8710557866,-3.0107037504,0.
 Recover connectivity data from disk.

 GradGradGradGradGradGradGradGradGradGradGradGradGradGradGradGradGradGrad
 Berny optimization.
 Initialization pass.
                           ----------------------------
                           !    Initial Parameters    !
                           ! (Angstroms and Degrees)  !
 --------------------------                            --------------------------
 ! Name  Definition              Value          Derivative Info.                !
 --------------------------------------------------------------------------------
 ! R1    R(1,2)                  1.4141         estimate D2E/DX2                !
 ! R2    R(1,6)                  1.414          estimate D2E/DX2                !
 ! R3    R(1,8)                  1.6894         estimate D2E/DX2                !
 ! R4    R(2,3)                  1.369          estimate D2E/DX2                !
 ! R5    R(2,9)                  1.0974         estimate D2E/DX2                !
 ! R6    R(3,4)                  1.3714         estimate D2E/DX2                !
 ! R7    R(4,5)                  1.4061         estimate D2E/DX2                !
 ! R8    R(4,10)                 1.0966         estimate D2E/DX2                !
 ! R9    R(5,6)                  1.4085         estimate D2E/DX2                !
 ! R10   R(5,11)                 1.0996         estimate D2E/DX2                !
 ! R11   R(6,7)                  1.6945         estimate D2E/DX2                !
 ! A1    A(2,1,6)              119.5014         estimate D2E/DX2                !
 ! A2    A(2,1,8)              119.1035         estimate D2E/DX2                !
 ! A3    A(6,1,8)              121.3951         estimate D2E/DX2                !
 ! A4    A(1,2,3)              114.926          estimate D2E/DX2                !
 ! A5    A(1,2,9)              122.0196         estimate D2E/DX2                !
 ! A6    A(3,2,9)              123.0545         estimate D2E/DX2                !
 ! A7    A(2,3,4)              129.4081         estimate D2E/DX2                !
 ! A8    A(3,4,5)              114.9539         estimate D2E/DX2                !
 ! A9    A(3,4,10)             123.0129         estimate D2E/DX2                !
 ! A10   A(5,4,10)             122.0332         estimate D2E/DX2                !
 ! A11   A(4,5,6)              119.9201         estimate D2E/DX2                !
 ! A12   A(4,5,11)             120.0538         estimate D2E/DX2                !
 ! A13   A(6,5,11)             120.0261         estimate D2E/DX2                !
 ! A14   A(1,6,5)              121.2905         estimate D2E/DX2                !
 ! A15   A(1,6,7)              120.3723         estimate D2E/DX2                !
 ! A16   A(5,6,7)              118.3372         estimate D2E/DX2                !
 ! D1    D(6,1,2,3)              0.0            estimate D2E/DX2                !
 ! D2    D(6,1,2,9)            180.0            estimate D2E/DX2                !
 ! D3    D(8,1,2,3)            180.0            estimate D2E/DX2                !
 ! D4    D(8,1,2,9)              0.0            estimate D2E/DX2                !
 ! D5    D(2,1,6,5)              0.0            estimate D2E/DX2                !
 ! D6    D(2,1,6,7)            180.0            estimate D2E/DX2                !
 ! D7    D(8,1,6,5)            180.0            estimate D2E/DX2                !
 ! D8    D(8,1,6,7)              0.0            estimate D2E/DX2                !
 ! D9    D(1,2,3,4)              0.0            estimate D2E/DX2                !
 ! D10   D(9,2,3,4)            180.0            estimate D2E/DX2                !
 ! D11   D(2,3,4,5)              0.0            estimate D2E/DX2                !
 ! D12   D(2,3,4,10)           180.0            estimate D2E/DX2                !
 ! D13   D(3,4,5,6)              0.0            estimate D2E/DX2                !
 ! D14   D(3,4,5,11)           180.0            estimate D2E/DX2                !
 ! D15   D(10,4,5,6)           180.0            estimate D2E/DX2                !
 ! D16   D(10,4,5,11)            0.0            estimate D2E/DX2                !
 ! D17   D(4,5,6,1)              0.0            estimate D2E/DX2                !
 ! D18   D(4,5,6,7)            180.0            estimate D2E/DX2                !
 ! D19   D(11,5,6,1)           180.0            estimate D2E/DX2                !
 ! D20   D(11,5,6,7)             0.0            estimate D2E/DX2                !
 --------------------------------------------------------------------------------
 Trust Radius=3.00D-01 FncErr=1.00D-07 GrdErr=1.00D-06 EigMax=2.50D+02 EigMin=1.00D-04
 Number of steps in this run=     57 maximum allowed number of steps=    100.
 GradGradGradGradGradGradGradGradGradGradGradGradGradGradGradGradGradGrad

                          Input orientation:                          
 ---------------------------------------------------------------------
 Center     Atomic      Atomic             Coordinates (Angstroms)
 Number     Number       Type             X           Y           Z
 ---------------------------------------------------------------------
      1          6           0       -3.174048    0.186542    0.000000
      2          6           0       -1.970926    0.929613   -0.000000
      3          6           0       -0.827708    0.176551   -0.000000
      4          6           0       -0.683541   -1.187248   -0.000000
      5          6           0       -1.888988   -1.911216   -0.000000
      6          6           0       -3.119797   -1.226390   -0.000000
      7         17           0       -4.547795   -2.138619    0.000000
      8         17           0       -4.648775    1.010612    0.000000
      9          1           0       -1.964811    2.027035   -0.000000
     10          1           0        0.293693   -1.684714   -0.000000
     11          1           0       -1.871056   -3.010704   -0.000000
 ---------------------------------------------------------------------
                    Distance matrix (angstroms):
                    1          2          3          4          5
     1  C    0.000000
     2  C    1.414092   0.000000
     3  C    2.346361   1.368960   0.000000
     4  C    2.844279   2.477592   1.371398   0.000000
     5  C    2.460075   2.842011   2.342026   1.406140   0.000000
     6  C    1.413973   2.443001   2.687362   2.436570   1.408502
     7  Cl   2.700658   4.006782   4.381673   3.979644   2.668514
     8  Cl   1.689352   2.679073   3.911037   4.533615   4.019143
     9  H    2.202196   1.097439   2.171933   3.460241   3.938981
    10  H    3.940410   3.458787   2.172981   1.096567   2.194402
    11  H    3.452560   3.941582   3.353679   2.176047   1.099634
                    6          7          8          9         10
     6  C    0.000000
     7  Cl   1.694503   0.000000
     8  Cl   2.709604   3.150850   0.000000
     9  H    3.452357   4.901478   2.869979   0.000000
    10  H    3.444122   4.862719   5.629634   4.344873   0.000000
    11  H    2.177873   2.815220   4.887403   5.038611   2.538580
                   11
    11  H    0.000000
 Stoichiometry    C6H3Cl2(2)
 Framework group  CS[SG(C6H3Cl2)]
 Deg. of freedom    19
 Full point group                 CS      NOp   2
 Largest Abelian subgroup         CS      NOp   2
 Largest concise Abelian subgroup C1      NOp   1
                         Standard orientation:                         
 ---------------------------------------------------------------------
 Center     Atomic      Atomic             Coordinates (Angstroms)
 Number     Number       Type             X           Y           Z
 ---------------------------------------------------------------------
      1          6           0        0.006519   -0.735399   -0.000000
      2          6           0        1.240462   -1.426080   -0.000000
      3          6           0        2.350262   -0.624584   -0.000000
      4          6           0        2.435687    0.744150   -0.000000
      5          6           0        1.200242    1.415646   -0.000000
      6          6           0        0.000000    0.678559    0.000000
      7         17           0       -1.465881    1.528579    0.000000
      8         17           0       -1.431432   -1.622083    0.000000
      9          1           0        1.293733   -2.522225   -0.000000
     10          1           0        3.390641    1.283152   -0.000000
     11          1           0        1.170908    2.514888   -0.000000
 ---------------------------------------------------------------------
 Rotational constants (GHZ):           1.9542726           1.5063325           0.8506560
 Standard basis: 6-311++G(d,p) (5D, 7F)
 There are   166 symmetry adapted cartesian basis functions of A'  symmetry.
 There are    55 symmetry adapted cartesian basis functions of A"  symmetry.
 There are   158 symmetry adapted basis functions of A'  symmetry.
 There are    55 symmetry adapted basis functions of A"  symmetry.
   213 basis functions,   349 primitive gaussians,   221 cartesian basis functions
    37 alpha electrons       36 beta electrons
       nuclear repulsion energy       459.9837016157 Hartrees.
 NAtoms=   11 NActive=   11 NUniq=   11 SFac= 1.00D+00 NAtFMM=   60 NAOKFM=F Big=F
 Integral buffers will be    131072 words long.
 Raffenetti 2 integral format.
 Two-electron integral symmetry is turned on.
 One-electron integrals computed using PRISM.
 NBasis=   213 RedAO= T EigKep=  1.54D-06  NBF=   158    55
 NBsUse=   213 1.00D-06 EigRej= -1.00D+00 NBFU=   158    55
 Initial guess from the checkpoint file:  "frequency_chks/124-12_-ClBzNeutralRadical_Freq.chk"
 B after Tr=     0.000000    0.000000    0.000000
         Rot=    1.000000    0.000000    0.000000   -0.000000 Ang=   0.00 deg.
 Initial guess orbital symmetries:
 Alpha Orbitals:
       Occupied  (A') (A') (A') (A') (A') (A') (A') (A') (A') (A')
                 (A') (A") (A') (A') (A") (A") (A') (A') (A') (A")
                 (A") (A") (A") (A') (A') (A") (A') (A') (A') (A')
                 (A') (A') (A') (A') (A') (A') (A')
       Virtual   (A') (A') (A') (A') (A') (A') (A') (A') (A') (A')
                 (A') (A') (A') (A') (A') (A') (A') (A') (A') (A')
                 (A') (A') (A') (A') (A') (A') (A') (A') (A') (A')
                 (A') (A') (A') (A') (A') (A') (A') (A') (A') (A')
                 (A') (A') (A') (A') (A') (A') (A') (A') (A') (A')
                 (A') (A') (A') (A') (A') (A') (A') (A') (A') (A')
                 (A') (A') (A') (A') (A') (A') (A') (A') (A') (A')
                 (A') (A') (A') (A') (A') (A') (A') (A') (A') (A')
                 (A') (A') (A') (A') (A') (A') (A') (A') (A') (A')
                 (A') (A') (A') (A') (A') (A') (A') (A') (A') (A')
                 (A') (A') (A') (A') (A') (A') (A') (A') (A') (A')
                 (A') (A') (A') (A') (A') (A') (A') (A') (A') (A')
                 (A') (A') (A') (A') (A') (A') (A') (A') (A') (A")
                 (A") (A") (A") (A") (A") (A") (A") (A") (A") (A")
                 (A") (A") (A") (A") (A") (A") (A") (A") (A") (A")
                 (A") (A") (A") (A") (A") (A") (A") (A") (A") (A")
                 (A") (A") (A") (A") (A") (A") (A") (A") (A") (A")
                 (A") (A") (A") (A") (A") (A")
 Beta  Orbitals:
       Occupied  (A') (A') (A') (A') (A') (A') (A') (A') (A') (A')
                 (A") (A') (A') (A') (A") (A") (A') (A') (A") (A")
                 (A") (A') (A") (A') (A') (A") (A') (A') (A') (A')
                 (A') (A') (A') (A') (A') (A')
       Virtual   (A') (A') (A') (A') (A') (A') (A') (A') (A') (A')
                 (A') (A') (A') (A') (A') (A') (A') (A') (A') (A')
                 (A') (A') (A') (A') (A') (A') (A') (A') (A') (A')
                 (A') (A') (A') (A') (A') (A') (A') (A') (A') (A')
                 (A') (A') (A') (A') (A') (A') (A') (A') (A') (A')
                 (A') (A') (A') (A') (A') (A') (A') (A') (A') (A')
                 (A') (A') (A') (A') (A') (A') (A') (A') (A') (A')
                 (A') (A') (A') (A') (A') (A') (A') (A') (A') (A')
                 (A') (A') (A') (A') (A') (A') (A') (A') (A') (A')
                 (A') (A') (A') (A') (A') (A') (A') (A') (A') (A')
                 (A') (A') (A') (A') (A') (A') (A') (A') (A') (A')
                 (A') (A') (A') (A') (A') (A') (A') (A') (A') (A')
                 (A') (A') (A') (A') (A') (A') (A') (A') (A') (A')
                 (A") (A") (A") (A") (A") (A") (A") (A") (A") (A")
                 (A") (A") (A") (A") (A") (A") (A") (A") (A") (A")
                 (A") (A") (A") (A") (A") (A") (A") (A") (A") (A")
                 (A") (A") (A") (A") (A") (A") (A") (A") (A") (A")
                 (A") (A") (A") (A") (A") (A") (A")
 Initial guess <Sx>= 0.0000 <Sy>= 0.0000 <Sz>= 0.5000 <S**2>= 0.7500 S= 0.5000
 Keep R1 and R2 ints in memory in symmetry-blocked form, NReq=411615841.
 Requested convergence on RMS density matrix=1.00D-08 within 128 cycles.
 Requested convergence on MAX density matrix=1.00D-06.
 Requested convergence on             energy=1.00D-06.
 No special actions if energy rises.
 EnCoef did     4 forward-backward iterations
 SCF Done:  E(UM062X) =  -1150.70563559     A.U. after   27 cycles
            NFock= 27  Conv=0.52D-08     -V/T= 2.0025
 <Sx>= 0.0000 <Sy>= 0.0000 <Sz>= 0.5000 <S**2>= 0.7628 S= 0.5064
 <L.S>=  0.00000000000    
 Annihilation of the first spin contaminant:
 S**2 before annihilation     0.7628,   after     0.7501

 **********************************************************************

            Population analysis using the SCF Density.

 **********************************************************************

 Orbital symmetries:
 Alpha Orbitals:
       Occupied  (A') (A') (A') (A') (A') (A') (A') (A') (A') (A')
                 (A') (A') (A") (A') (A") (A') (A') (A') (A') (A')
                 (A') (A') (A') (A') (A') (A') (A') (A") (A') (A')
                 (A") (A") (A') (A') (A") (A') (A")
       Virtual   (A") (A") (A') (A') (A') (A') (A') (A") (A') (A')
                 (A") (A') (A") (A') (A') (A") (A') (A') (A") (A')
                 (A") (A') (A') (A') (A") (A') (A') (A') (A") (A')
                 (A') (A") (A') (A') (A') (A') (A') (A') (A') (A')
                 (A') (A') (A') (A') (A') (A') (A') (A") (A') (A')
                 (A') (A') (A") (A') (A') (A") (A') (A') (A") (A")
                 (A') (A") (A') (A") (A') (A') (A") (A') (A') (A')
                 (A') (A') (A") (A') (A') (A') (A') (A') (A') (A")
                 (A") (A') (A") (A') (A') (A') (A') (A") (A') (A")
                 (A') (A") (A') (A') (A") (A') (A') (A') (A") (A")
                 (A') (A') (A') (A') (A") (A") (A') (A') (A") (A')
                 (A') (A') (A") (A') (A") (A') (A") (A') (A') (A")
                 (A') (A') (A") (A') (A") (A') (A") (A") (A') (A')
                 (A') (A') (A') (A') (A') (A') (A") (A') (A') (A')
                 (A') (A") (A") (A') (A") (A") (A') (A") (A') (A')
                 (A') (A') (A') (A') (A') (A') (A') (A') (A') (A')
                 (A') (A') (A') (A') (A') (A') (A') (A') (A") (A")
                 (A') (A') (A') (A') (A') (A')
 Beta  Orbitals:
       Occupied  (A') (A') (A') (A') (A') (A') (A') (A') (A') (A')
                 (A') (A') (A") (A') (A") (A') (A') (A') (A') (A')
                 (A') (A') (A') (A') (A') (A') (A') (A") (A') (A')
                 (A") (A") (A') (A') (A") (A")
       Virtual   (A') (A") (A') (A") (A') (A') (A') (A') (A") (A')
                 (A') (A") (A') (A") (A') (A') (A") (A') (A') (A")
                 (A') (A') (A') (A") (A') (A") (A') (A') (A') (A")
                 (A') (A') (A") (A') (A') (A') (A') (A') (A') (A')
                 (A') (A') (A') (A') (A') (A') (A') (A') (A") (A')
                 (A') (A') (A') (A") (A') (A') (A") (A') (A') (A')
                 (A") (A") (A") (A') (A") (A') (A') (A") (A') (A')
                 (A') (A') (A') (A") (A') (A') (A') (A') (A') (A')
                 (A") (A") (A') (A") (A') (A') (A') (A') (A") (A')
                 (A") (A') (A") (A') (A') (A") (A') (A') (A') (A")
                 (A") (A') (A') (A') (A') (A") (A") (A') (A') (A")
                 (A') (A') (A') (A") (A') (A") (A') (A") (A') (A')
                 (A") (A') (A') (A") (A') (A") (A') (A") (A") (A')
                 (A') (A') (A') (A') (A') (A') (A') (A") (A') (A')
                 (A') (A') (A") (A") (A') (A") (A") (A') (A") (A')
                 (A') (A') (A') (A') (A') (A') (A') (A') (A') (A')
                 (A') (A') (A') (A') (A') (A') (A') (A') (A') (A")
                 (A") (A') (A') (A') (A') (A') (A')
 The electronic state is 2-A'.
 Alpha  occ. eigenvalues -- -102.69249-102.68874 -10.63606 -10.62882 -10.58952
 Alpha  occ. eigenvalues --  -10.58521 -10.58234 -10.57763  -9.83598  -9.83230
 Alpha  occ. eigenvalues --   -7.56126  -7.55752  -7.55438  -7.55407  -7.55053
 Alpha  occ. eigenvalues --   -7.55043  -1.04280  -0.98088  -0.96128  -0.86385
 Alpha  occ. eigenvalues --   -0.83024  -0.72412  -0.68590  -0.60375  -0.57728
 Alpha  occ. eigenvalues --   -0.55072  -0.52798  -0.50837  -0.49585  -0.46462
 Alpha  occ. eigenvalues --   -0.42996  -0.42263  -0.40429  -0.38658  -0.32761
 Alpha  occ. eigenvalues --   -0.31866  -0.30995
 Alpha virt. eigenvalues --   -0.01545  -0.00429  -0.00352   0.00994   0.01678
 Alpha virt. eigenvalues --    0.03123   0.04685   0.05763   0.05800   0.07371
 Alpha virt. eigenvalues --    0.07737   0.07900   0.08716   0.08817   0.10052
 Alpha virt. eigenvalues --    0.11611   0.11854   0.12018   0.12726   0.12925
 Alpha virt. eigenvalues --    0.13739   0.13757   0.13928   0.14668   0.15109
 Alpha virt. eigenvalues --    0.15760   0.17385   0.17887   0.18473   0.19677
 Alpha virt. eigenvalues --    0.20373   0.20552   0.20914   0.22260   0.23021
 Alpha virt. eigenvalues --    0.24707   0.24959   0.25872   0.26843   0.27609
 Alpha virt. eigenvalues --    0.28219   0.29044   0.29869   0.33169   0.34179
 Alpha virt. eigenvalues --    0.35194   0.36565   0.46161   0.46488   0.46805
 Alpha virt. eigenvalues --    0.48267   0.49532   0.50189   0.50789   0.53057
 Alpha virt. eigenvalues --    0.54418   0.56536   0.57216   0.59867   0.60105
 Alpha virt. eigenvalues --    0.61235   0.62868   0.63641   0.64343   0.64964
 Alpha virt. eigenvalues --    0.67591   0.69687   0.70170   0.70989   0.77205
 Alpha virt. eigenvalues --    0.77882   0.79394   0.80801   0.84564   0.86506
 Alpha virt. eigenvalues --    0.87941   0.88376   0.90734   0.91158   0.91202
 Alpha virt. eigenvalues --    0.91571   0.94205   0.94926   0.95676   0.97623
 Alpha virt. eigenvalues --    0.99206   1.00435   1.03025   1.04008   1.05386
 Alpha virt. eigenvalues --    1.07428   1.12873   1.13824   1.20630   1.22626
 Alpha virt. eigenvalues --    1.27145   1.30238   1.32735   1.33623   1.36624
 Alpha virt. eigenvalues --    1.39777   1.49653   1.53097   1.56007   1.59129
 Alpha virt. eigenvalues --    1.61576   1.64164   1.68085   1.70924   1.72247
 Alpha virt. eigenvalues --    1.77794   1.84393   1.87974   1.89386   1.90415
 Alpha virt. eigenvalues --    1.91185   1.94159   1.97332   2.01280   2.03130
 Alpha virt. eigenvalues --    2.03914   2.15744   2.18175   2.26043   2.27774
 Alpha virt. eigenvalues --    2.27838   2.32361   2.33721   2.40627   2.42434
 Alpha virt. eigenvalues --    2.45975   2.50411   2.54780   2.55473   2.60320
 Alpha virt. eigenvalues --    2.66935   2.68081   2.69587   2.71047   2.74453
 Alpha virt. eigenvalues --    2.76066   2.80129   2.83046   2.84499   2.91295
 Alpha virt. eigenvalues --    2.92892   2.95583   3.10148   3.14792   3.23866
 Alpha virt. eigenvalues --    3.27618   3.36303   3.41799   3.51887   3.67084
 Alpha virt. eigenvalues --    3.77597   3.88473   4.08650   4.13886   4.77153
 Alpha virt. eigenvalues --    9.95119  10.01150  23.48315  23.87860  23.94072
 Alpha virt. eigenvalues --   24.05069  24.10921  24.23286  25.89172  25.97327
 Alpha virt. eigenvalues --   26.20514  26.27495  26.60159  26.92924 216.04890
 Alpha virt. eigenvalues --  216.11911
  Beta  occ. eigenvalues -- -102.69233-102.68878 -10.63504 -10.62920 -10.58431
  Beta  occ. eigenvalues --  -10.58268 -10.57984 -10.57775  -9.83592  -9.83231
  Beta  occ. eigenvalues --   -7.56097  -7.55748  -7.55425  -7.55396  -7.55073
  Beta  occ. eigenvalues --   -7.55043  -1.04067  -0.98029  -0.95062  -0.85843
  Beta  occ. eigenvalues --   -0.81929  -0.71964  -0.67227  -0.59406  -0.57006
  Beta  occ. eigenvalues --   -0.54274  -0.52357  -0.50627  -0.48510  -0.45840
  Beta  occ. eigenvalues --   -0.43004  -0.41337  -0.40193  -0.38400  -0.32564
  Beta  occ. eigenvalues --   -0.30326
  Beta virt. eigenvalues --   -0.06369  -0.01578  -0.00165   0.00694   0.01257
  Beta virt. eigenvalues --    0.01837   0.03358   0.05006   0.05726   0.05865
  Beta virt. eigenvalues --    0.07620   0.07903   0.08589   0.08693   0.08959
  Beta virt. eigenvalues --    0.10196   0.11451   0.11805   0.12284   0.12647
  Beta virt. eigenvalues --    0.12832   0.13394   0.13586   0.13771   0.14614
  Beta virt. eigenvalues --    0.15039   0.15912   0.17717   0.18132   0.19134
  Beta virt. eigenvalues --    0.19647   0.20402   0.20899   0.20999   0.22293
  Beta virt. eigenvalues --    0.23033   0.24683   0.24910   0.25771   0.27397
  Beta virt. eigenvalues --    0.27801   0.28334   0.29543   0.29621   0.33645
  Beta virt. eigenvalues --    0.34484   0.35333   0.37345   0.46163   0.46699
  Beta virt. eigenvalues --    0.46766   0.48022   0.49700   0.50194   0.50819
  Beta virt. eigenvalues --    0.53214   0.54643   0.56155   0.56936   0.59450
  Beta virt. eigenvalues --    0.59995   0.60181   0.62917   0.62918   0.64407
  Beta virt. eigenvalues --    0.64757   0.68128   0.69559   0.70026   0.71421
  Beta virt. eigenvalues --    0.76975   0.78403   0.79192   0.80897   0.84783
  Beta virt. eigenvalues --    0.85801   0.88185   0.88443   0.90682   0.91123
  Beta virt. eigenvalues --    0.91234   0.91550   0.93399   0.94932   0.95789
  Beta virt. eigenvalues --    0.97737   0.99593   1.00406   1.03471   1.04036
  Beta virt. eigenvalues --    1.05917   1.07335   1.13376   1.14144   1.20560
  Beta virt. eigenvalues --    1.24574   1.26869   1.30180   1.32738   1.33873
  Beta virt. eigenvalues --    1.36999   1.41533   1.50257   1.53677   1.56576
  Beta virt. eigenvalues --    1.59350   1.62297   1.64727   1.68608   1.70947
  Beta virt. eigenvalues --    1.72844   1.78185   1.84854   1.88172   1.90350
  Beta virt. eigenvalues --    1.90521   1.91113   1.94742   1.97831   2.01751
  Beta virt. eigenvalues --    2.03335   2.04179   2.15812   2.18497   2.26520
  Beta virt. eigenvalues --    2.27775   2.28039   2.32724   2.33811   2.41099
  Beta virt. eigenvalues --    2.42785   2.46228   2.50659   2.54845   2.56128
  Beta virt. eigenvalues --    2.60663   2.67277   2.68175   2.70003   2.71063
  Beta virt. eigenvalues --    2.74450   2.76084   2.80526   2.83095   2.84981
  Beta virt. eigenvalues --    2.91471   2.92686   2.98300   3.10248   3.15024
  Beta virt. eigenvalues --    3.23936   3.28482   3.36686   3.42458   3.52428
  Beta virt. eigenvalues --    3.67384   3.77890   3.88449   4.08793   4.14293
  Beta virt. eigenvalues --    4.77343   9.95122  10.01152  23.48437  23.88082
  Beta virt. eigenvalues --   23.94091  24.05178  24.10932  24.23910  25.89170
  Beta virt. eigenvalues --   25.97321  26.20546  26.27499  26.60199  26.92974
  Beta virt. eigenvalues --  216.04899 216.11920
          Condensed to atoms (all electrons):
               1          2          3          4          5          6
     1  C   19.670926  -3.923864  -0.101430  -2.775934  -2.527591  -3.949506
     2  C   -3.923864  15.984001  -0.123880   2.385782  -7.412406  -0.393413
     3  C   -0.101430  -0.123880   7.997907  -1.048413   2.670686  -4.001082
     4  C   -2.775934   2.385782  -1.048413   9.066253  -2.536666   1.166224
     5  C   -2.527591  -7.412406   2.670686  -2.536666  22.812618  -6.671953
     6  C   -3.949506  -0.393413  -4.001082   1.166224  -6.671953  20.614270
     7  Cl  -0.122894   0.832890  -0.094242   0.267833  -0.930027  -0.574413
     8  Cl  -0.598924  -0.695874   0.154119  -0.036245   0.713837  -0.101540
     9  H   -0.092045   0.429398   0.086226   0.016941  -0.033864  -0.074268
    10  H    0.028105  -0.031524   0.052529   0.306464   0.023459  -0.039880
    11  H   -0.093432  -0.030227   0.044211  -0.039162   0.575231  -0.146087
               7          8          9         10         11
     1  C   -0.122894  -0.598924  -0.092045   0.028105  -0.093432
     2  C    0.832890  -0.695874   0.429398  -0.031524  -0.030227
     3  C   -0.094242   0.154119   0.086226   0.052529   0.044211
     4  C    0.267833  -0.036245   0.016941   0.306464  -0.039162
     5  C   -0.930027   0.713837  -0.033864   0.023459   0.575231
     6  C   -0.574413  -0.101540  -0.074268  -0.039880  -0.146087
     7  Cl  17.451298  -0.234857   0.002456  -0.006093  -0.000622
     8  Cl  -0.234857  17.399110  -0.011729   0.000461  -0.000876
     9  H    0.002456  -0.011729   0.468189  -0.000026   0.001040
    10  H   -0.006093   0.000461  -0.000026   0.468463  -0.005428
    11  H   -0.000622  -0.000876   0.001040  -0.005428   0.472023
          Atomic-Atomic Spin Densities.
               1          2          3          4          5          6
     1  C    0.326768  -0.328268   0.109479  -0.164867   0.098557   0.016822
     2  C   -0.328268   0.736982  -0.519997   0.533107  -0.465514   0.047891
     3  C    0.109479  -0.519997   1.464892  -0.591160   0.446512  -0.143979
     4  C   -0.164867   0.533107  -0.591160   0.599356  -0.484363   0.217557
     5  C    0.098557  -0.465514   0.446512  -0.484363   0.635344  -0.188646
     6  C    0.016822   0.047891  -0.143979   0.217557  -0.188646   0.046939
     7  Cl   0.003541   0.039000  -0.036636   0.034826  -0.054233   0.008319
     8  Cl  -0.042381   0.056331  -0.016057   0.017322  -0.020797  -0.007092
     9  H   -0.012692   0.005466   0.003975  -0.014440   0.005048  -0.001596
    10  H   -0.002678  -0.006613   0.001149   0.002963   0.001825  -0.003870
    11  H   -0.000942  -0.004924   0.014022  -0.021320   0.012976  -0.003365
               7          8          9         10         11
     1  C    0.003541  -0.042381  -0.012692  -0.002678  -0.000942
     2  C    0.039000   0.056331   0.005466  -0.006613  -0.004924
     3  C   -0.036636  -0.016057   0.003975   0.001149   0.014022
     4  C    0.034826   0.017322  -0.014440   0.002963  -0.021320
     5  C   -0.054233  -0.020797   0.005048   0.001825   0.012976
     6  C    0.008319  -0.007092  -0.001596  -0.003870  -0.003365
     7  Cl  -0.002582   0.006203  -0.000842  -0.000265  -0.002710
     8  Cl   0.006203   0.017901   0.002633  -0.000039  -0.000225
     9  H   -0.000842   0.002633   0.036723   0.000318   0.000144
    10  H   -0.000265  -0.000039   0.000318   0.030748   0.001859
    11  H   -0.002710  -0.000225   0.000144   0.001859   0.012253
 Mulliken charges and spin densities:
               1          2
     1  C    0.486590   0.003339
     2  C   -1.020883   0.093460
     3  C    0.363370   0.732200
     4  C   -0.773077   0.128981
     5  C   -0.683324  -0.013289
     6  C    0.171649  -0.011019
     7  Cl   0.408673  -0.005378
     8  Cl   0.412517   0.013800
     9  H    0.207683   0.024737
    10  H    0.203472   0.025399
    11  H    0.223330   0.007769
 Sum of Mulliken charges =  -0.00000   1.00000
 Mulliken charges and spin densities with hydrogens summed into heavy atoms:
               1          2
     1  C    0.486590   0.003339
     2  C   -0.813200   0.118197
     3  C    0.363370   0.732200
     4  C   -0.569605   0.154380
     5  C   -0.459994  -0.005520
     6  C    0.171649  -0.011019
     7  Cl   0.408673  -0.005378
     8  Cl   0.412517   0.013800
 Electronic spatial extent (au):  <R**2>=           1227.5965
 Charge=             -0.0000 electrons
 Dipole moment (field-independent basis, Debye):
    X=              1.6528    Y=              0.4037    Z=             -0.0000  Tot=              1.7014
 Quadrupole moment (field-independent basis, Debye-Ang):
   XX=            -57.8135   YY=            -55.0212   ZZ=            -62.7852
   XY=              2.3760   XZ=              0.0000   YZ=              0.0000
 Traceless Quadrupole moment (field-independent basis, Debye-Ang):
   XX=              0.7264   YY=              3.5188   ZZ=             -4.2452
   XY=              2.3760   XZ=              0.0000   YZ=              0.0000
 Octapole moment (field-independent basis, Debye-Ang**2):
  XXX=            -14.7602  YYY=              0.0720  ZZZ=              0.0000  XYY=              2.1260
  XXY=              9.0191  XXZ=             -0.0000  XZZ=            -10.0187  YZZ=             -0.1850
  YYZ=             -0.0000  XYZ=             -0.0000
 Hexadecapole moment (field-independent basis, Debye-Ang**3):
 XXXX=           -863.2292 YYYY=           -649.2171 ZZZZ=            -73.3406 XXXY=             21.8685
 XXXZ=              0.0000 YYYX=            -11.3243 YYYZ=             -0.0000 ZZZX=              0.0000
 ZZZY=             -0.0000 XXYY=           -241.6398 XXZZ=           -176.1385 YYZZ=           -134.3060
 XXYZ=             -0.0000 YYXZ=              0.0000 ZZXY=             -5.2422
 N-N= 4.599837016157D+02 E-N=-3.641932219530D+03  KE= 1.147831789996D+03
 Symmetry A'   KE= 1.049543737188D+03
 Symmetry A"   KE= 9.828805280799D+01
 Symmetry A'   SP= 1.000000000000D+00
 Symmetry A"   SP= 1.293493785829D-14
                          Isotropic Fermi Contact Couplings
        Atom                 a.u.       MegaHertz       Gauss      10(-4) cm-1
     1  C(13)              0.06886      77.41434      27.62336      25.82264
     2  C(13)              0.01106      12.42932       4.43509       4.14597
     3  C(13)              0.41776     469.64429     167.58076     156.65647
     4  C(13)              0.00759       8.53512       3.04554       2.84701
     5  C(13)              0.05420      60.93543      21.74328      20.32587
     6  C(13)             -0.01129     -12.68789      -4.52735      -4.23222
     7  Cl(35)             0.00249       1.09205       0.38967       0.36427
     8  Cl(35)             0.00164       0.72019       0.25698       0.24023
     9  H(1)               0.01230      54.97388      19.61605      18.33731
    10  H(1)               0.01158      51.75306      18.46678      17.26296
    11  H(1)               0.00314      14.05246       5.01427       4.68739
 --------------------------------------------------------
       Center         ----  Spin Dipole Couplings  ----
                      3XX-RR        3YY-RR        3ZZ-RR
 --------------------------------------------------------
     1   Atom        0.015765     -0.013511     -0.002255
     2   Atom        0.083363      0.016146     -0.099509
     3   Atom        0.600509     -0.200203     -0.400306
     4   Atom       -0.003330      0.102180     -0.098851
     5   Atom        0.018292     -0.011027     -0.007265
     6   Atom        0.033262      0.024857     -0.058119
     7   Atom        0.033654      0.017365     -0.051019
     8   Atom        0.077258     -0.058065     -0.019193
     9   Atom        0.003285      0.008557     -0.011842
    10   Atom       -0.007029      0.019075     -0.012046
    11   Atom       -0.004105      0.009426     -0.005320
 --------------------------------------------------------
                        XY            XZ            YZ
 --------------------------------------------------------
     1   Atom       -0.035240     -0.000000      0.000000
     2   Atom        0.042217     -0.000000     -0.000000
     3   Atom       -0.663630     -0.000000      0.000000
     4   Atom       -0.020028      0.000000      0.000000
     5   Atom       -0.043487     -0.000000      0.000000
     6   Atom       -0.006351     -0.000000      0.000000
     7   Atom       -0.006682     -0.000000      0.000000
     8   Atom        0.008073      0.000000     -0.000000
     9   Atom        0.016109     -0.000000      0.000000
    10   Atom        0.010040     -0.000000     -0.000000
    11   Atom       -0.003208     -0.000000      0.000000
 --------------------------------------------------------


 ---------------------------------------------------------------------------------
              Anisotropic Spin Dipole Couplings in Principal Axis System
 ---------------------------------------------------------------------------------

       Atom             a.u.   MegaHertz   Gauss  10(-4) cm-1        Axes

              Baa    -0.0370    -4.969    -1.773    -1.658  0.5552  0.8317  0.0000
     1 C(13)  Bbb    -0.0023    -0.303    -0.108    -0.101  0.0000  0.0000  1.0000
              Bcc     0.0393     5.272     1.881     1.759  0.8317 -0.5552  0.0000
 
              Baa    -0.0995   -13.353    -4.765    -4.454  0.0000  0.0000  1.0000
     2 C(13)  Bbb    -0.0042    -0.564    -0.201    -0.188 -0.4343  0.9008 -0.0000
              Bcc     0.1037    13.918     4.966     4.642  0.9008  0.4343 -0.0000
 
              Baa    -0.5749   -77.145   -27.527   -25.733  0.4917  0.8708 -0.0000
     3 C(13)  Bbb    -0.4003   -53.717   -19.168   -17.918  0.0000  0.0000  1.0000
              Bcc     0.9752   130.862    46.695    43.651  0.8708 -0.4917  0.0000
 
              Baa    -0.0989   -13.265    -4.733    -4.425  0.0000  0.0000  1.0000
     4 C(13)  Bbb    -0.0070    -0.940    -0.335    -0.313  0.9836  0.1804 -0.0000
              Bcc     0.1059    14.205     5.069     4.738 -0.1804  0.9836 -0.0000
 
              Baa    -0.0423    -5.671    -2.023    -1.892  0.5833  0.8122  0.0000
     5 C(13)  Bbb    -0.0073    -0.975    -0.348    -0.325  0.0000  0.0000  1.0000
              Bcc     0.0495     6.646     2.371     2.217  0.8122 -0.5833  0.0000
 
              Baa    -0.0581    -7.799    -2.783    -2.601  0.0000  0.0000  1.0000
     6 C(13)  Bbb     0.0214     2.878     1.027     0.960  0.4734  0.8809  0.0000
              Bcc     0.0367     4.921     1.756     1.642  0.8809 -0.4734  0.0000
 
              Baa    -0.0510    -2.670    -0.953    -0.891  0.0000  0.0000  1.0000
     7 Cl(35) Bbb     0.0150     0.784     0.280     0.261  0.3368  0.9416 -0.0000
              Bcc     0.0360     1.886     0.673     0.629  0.9416 -0.3368  0.0000
 
              Baa    -0.0585    -3.064    -1.093    -1.022 -0.0593  0.9982 -0.0000
     8 Cl(35) Bbb    -0.0192    -1.005    -0.358    -0.335  0.0000  0.0000  1.0000
              Bcc     0.0777     4.069     1.452     1.357  0.9982  0.0593  0.0000
 
              Baa    -0.0118    -6.318    -2.255    -2.108  0.0000  0.0000  1.0000
     9 H(1)   Bbb    -0.0104    -5.550    -1.980    -1.851  0.7621 -0.6475  0.0000
              Bcc     0.0222    11.868     4.235     3.959  0.6475  0.7621 -0.0000
 
              Baa    -0.0120    -6.427    -2.293    -2.144  0.0000  0.0000  1.0000
    10 H(1)   Bbb    -0.0104    -5.572    -1.988    -1.859  0.9467 -0.3220 -0.0000
              Bcc     0.0225    11.999     4.282     4.003  0.3220  0.9467 -0.0000
 
              Baa    -0.0053    -2.839    -1.013    -0.947  0.0000  0.0000  1.0000
    11 H(1)   Bbb    -0.0048    -2.576    -0.919    -0.859  0.9756  0.2196  0.0000
              Bcc     0.0101     5.414     1.932     1.806 -0.2196  0.9756 -0.0000
 

 ---------------------------------------------------------------------------------

 Calling FoFJK, ICntrl=      2127 FMM=F ISym2X=1 I1Cent= 0 IOpClX= 1 NMat=1 NMatS=1 NMatT=0.
 ***** Axes restored to original set *****
 -------------------------------------------------------------------
 Center     Atomic                   Forces (Hartrees/Bohr)
 Number     Number              X              Y              Z
 -------------------------------------------------------------------
      1        6           0.028483855   -0.011696144   -0.000000000
      2        6          -0.006614788   -0.008608888    0.000000000
      3        6           0.010641661    0.007940670   -0.000000000
      4        6          -0.008661946   -0.005566114    0.000000000
      5        6           0.003082714    0.002317316   -0.000000000
      6        6           0.024160897    0.012141323   -0.000000000
      7       17          -0.018036225   -0.011332279    0.000000000
      8       17          -0.019173546    0.010080457    0.000000000
      9        1          -0.002075905   -0.010301740    0.000000000
     10        1          -0.008921243    0.003965827    0.000000000
     11        1          -0.002885475    0.011059572    0.000000000
 -------------------------------------------------------------------
 Cartesian Forces:  Max     0.028483855 RMS     0.010081036

 GradGradGradGradGradGradGradGradGradGradGradGradGradGradGradGradGradGrad
 Berny optimization.
 FormGI is forming the generalized inverse of G from B-inverse, IUseBI=4.
 Internal  Forces:  Max     0.021655157 RMS     0.006747004
 Search for a local minimum.
 Step number   1 out of a maximum of   57
 All quantities printed in internal units (Hartrees-Bohrs-Radians)
 Mixed Optimization -- RFO/linear search
 Second derivative matrix not updated -- first step.
 ITU=  0
     Eigenvalues ---    0.01903   0.01932   0.01940   0.01992   0.02023
     Eigenvalues ---    0.02096   0.02169   0.02400   0.16000   0.16000
     Eigenvalues ---    0.16000   0.22373   0.23301   0.24595   0.25000
     Eigenvalues ---    0.25000   0.33723   0.33967   0.34065   0.36560
     Eigenvalues ---    0.37203   0.40658   0.41613   0.43692   0.44276
     Eigenvalues ---    0.49100   0.50571
 RFO step:  Lambda=-6.15195984D-03 EMin= 1.90314898D-02
 Linear search not attempted -- first point.
 Iteration  1 RMS(Cart)=  0.02372913 RMS(Int)=  0.00025710
 Iteration  2 RMS(Cart)=  0.00038770 RMS(Int)=  0.00005841
 Iteration  3 RMS(Cart)=  0.00000008 RMS(Int)=  0.00005841
 ClnCor:  largest displacement from symmetrization is 5.84D-09 for atom     7.
 Variable       Old X    -DE/DX   Delta X   Delta X   Delta X     New X
                                 (Linear)    (Quad)   (Total)
    R1        2.67225  -0.01049   0.00000  -0.02385  -0.02385   2.64840
    R2        2.67202  -0.01128   0.00000  -0.02623  -0.02631   2.64571
    R3        3.19241   0.02166   0.00000   0.05726   0.05726   3.24967
    R4        2.58696  -0.00325   0.00000  -0.00574  -0.00566   2.58130
    R5        2.07386  -0.01031   0.00000  -0.02982  -0.02982   2.04404
    R6        2.59157  -0.00228   0.00000  -0.00392  -0.00383   2.58773
    R7        2.65722  -0.00945   0.00000  -0.02089  -0.02089   2.63633
    R8        2.07221  -0.00975   0.00000  -0.02811  -0.02811   2.04410
    R9        2.66168  -0.01292   0.00000  -0.02938  -0.02947   2.63222
   R10        2.07801  -0.01111   0.00000  -0.03234  -0.03234   2.04566
   R11        3.20215   0.02130   0.00000   0.05730   0.05730   3.25944
    A1        2.08569   0.00108   0.00000   0.00183   0.00174   2.08744
    A2        2.07875   0.00035   0.00000   0.00255   0.00260   2.08134
    A3        2.11874  -0.00143   0.00000  -0.00438  -0.00434   2.11441
    A4        2.00584   0.00756   0.00000   0.03312   0.03320   2.03903
    A5        2.12964  -0.00588   0.00000  -0.02918  -0.02921   2.10043
    A6        2.14771  -0.00169   0.00000  -0.00395  -0.00398   2.14372
    A7        2.25860  -0.01419   0.00000  -0.05453  -0.05431   2.20428
    A8        2.00632   0.00501   0.00000   0.02184   0.02190   2.02823
    A9        2.14698  -0.00198   0.00000  -0.00774  -0.00777   2.13921
   A10        2.12988  -0.00304   0.00000  -0.01410  -0.01413   2.11575
   A11        2.09300   0.00340   0.00000   0.01234   0.01224   2.10524
   A12        2.09533   0.00111   0.00000   0.01073   0.01078   2.10611
   A13        2.09485  -0.00451   0.00000  -0.02307  -0.02302   2.07183
   A14        2.11692  -0.00287   0.00000  -0.01460  -0.01477   2.10214
   A15        2.10089   0.00118   0.00000   0.00632   0.00641   2.10730
   A16        2.06537   0.00169   0.00000   0.00828   0.00837   2.07374
    D1       -0.00000  -0.00000   0.00000   0.00000   0.00000   0.00000
    D2        3.14159  -0.00000   0.00000  -0.00000   0.00000   3.14159
    D3        3.14159  -0.00000   0.00000  -0.00000   0.00000   3.14159
    D4       -0.00000   0.00000   0.00000  -0.00000   0.00000   0.00000
    D5       -0.00000   0.00000   0.00000   0.00000   0.00000   0.00000
    D6        3.14159  -0.00000   0.00000   0.00000   0.00000   3.14159
    D7        3.14159   0.00000   0.00000   0.00000   0.00000   3.14159
    D8        0.00000   0.00000   0.00000   0.00000   0.00000   0.00000
    D9        0.00000  -0.00000   0.00000  -0.00000   0.00000   0.00000
   D10        3.14159   0.00000   0.00000   0.00000   0.00000   3.14159
   D11       -0.00000  -0.00000   0.00000   0.00000   0.00000   0.00000
   D12        3.14159   0.00000   0.00000   0.00000   0.00000   3.14159
   D13        0.00000  -0.00000   0.00000   0.00000  -0.00000   0.00000
   D14        3.14159  -0.00000   0.00000  -0.00000   0.00000   3.14159
   D15        3.14159  -0.00000   0.00000   0.00000   0.00000   3.14159
   D16       -0.00000   0.00000   0.00000  -0.00000   0.00000   0.00000
   D17       -0.00000  -0.00000   0.00000  -0.00000   0.00000   0.00000
   D18        3.14159  -0.00000   0.00000  -0.00000   0.00000   3.14159
   D19        3.14159   0.00000   0.00000   0.00000   0.00000   3.14159
   D20        0.00000  -0.00000   0.00000  -0.00000  -0.00000   0.00000
         Item               Value     Threshold  Converged?
 Maximum Force            0.021655     0.000450     NO 
 RMS     Force            0.006747     0.000300     NO 
 Maximum Displacement     0.073852     0.001800     NO 
 RMS     Displacement     0.023785     0.001200     NO 
 Predicted change in Energy=-3.133009D-03
 GradGradGradGradGradGradGradGradGradGradGradGradGradGradGradGradGradGrad

                          Input orientation:                          
 ---------------------------------------------------------------------
 Center     Atomic      Atomic             Coordinates (Angstroms)
 Number     Number       Type             X           Y           Z
 ---------------------------------------------------------------------
      1          6           0       -3.154515    0.174775    0.000000
      2          6           0       -1.959233    0.906506   -0.000000
      3          6           0       -0.797025    0.188777   -0.000000
      4          6           0       -0.687238   -1.176183   -0.000000
      5          6           0       -1.885468   -1.890681   -0.000000
      6          6           0       -3.108755   -1.224526   -0.000000
      7         17           0       -4.561635   -2.154125    0.000000
      8         17           0       -4.654560    1.015651    0.000000
      9          1           0       -1.980537    1.987954   -0.000000
     10          1           0        0.268111   -1.683491   -0.000000
     11          1           0       -1.882895   -2.973197   -0.000000
 ---------------------------------------------------------------------
                    Distance matrix (angstroms):
                    1          2          3          4          5
     1  C    0.000000
     2  C    1.401474   0.000000
     3  C    2.357531   1.365966   0.000000
     4  C    2.812924   2.440403   1.369368   0.000000
     5  C    2.424168   2.798160   2.347095   1.395084   0.000000
     6  C    1.400048   2.421301   2.709524   2.422000   1.392909
     7  Cl   2.720985   4.017457   4.434127   3.995913   2.689103
     8  Cl   1.719654   2.697536   3.945161   4.532524   4.014304
     9  H    2.160056   1.081658   2.153541   3.418243   3.879800
    10  H    3.894550   3.416013   2.154043   1.081690   2.163522
    11  H    3.395106   3.880454   3.343231   2.158438   1.082519
                    6          7          8          9         10
     6  C    0.000000
     7  Cl   1.724823   0.000000
     8  Cl   2.721746   3.171137   0.000000
     9  H    3.404835   4.880460   2.845307   0.000000
    10  H    3.407914   4.852623   5.614094   4.305337   0.000000
    11  H    2.135553   2.801166   4.857266   4.962112   2.508021
                   11
    11  H    0.000000
 Stoichiometry    C6H3Cl2(2)
 Framework group  CS[SG(C6H3Cl2)]
 Deg. of freedom    19
 Full point group                 CS      NOp   2
 Largest Abelian subgroup         CS      NOp   2
 Largest concise Abelian subgroup C1      NOp   1
                         Standard orientation:                         
 ---------------------------------------------------------------------
 Center     Atomic      Atomic             Coordinates (Angstroms)
 Number     Number       Type             X           Y           Z
 ---------------------------------------------------------------------
      1          6           0        0.036162   -0.723910    0.000000
      2          6           0        1.272196   -1.384478   -0.000000
      3          6           0        2.390435   -0.600002   -0.000000
      4          6           0        2.420199    0.769043   -0.000000
      5          6           0        1.182231    1.412235   -0.000000
      6          6           0        0.000000    0.675671   -0.000000
      7         17           0       -1.504764    1.518702    0.000000
      8         17           0       -1.412133   -1.651082    0.000000
      9          1           0        1.314181   -2.465321   -0.000000
     10          1           0        3.344241    1.331359   -0.000000
     11          1           0        1.121485    2.493049   -0.000000
 ---------------------------------------------------------------------
 Rotational constants (GHZ):           1.9500268           1.4914526           0.8450937
 Standard basis: 6-311++G(d,p) (5D, 7F)
 There are   166 symmetry adapted cartesian basis functions of A'  symmetry.
 There are    55 symmetry adapted cartesian basis functions of A"  symmetry.
 There are   158 symmetry adapted basis functions of A'  symmetry.
 There are    55 symmetry adapted basis functions of A"  symmetry.
   213 basis functions,   349 primitive gaussians,   221 cartesian basis functions
    37 alpha electrons       36 beta electrons
       nuclear repulsion energy       459.0789665384 Hartrees.
 NAtoms=   11 NActive=   11 NUniq=   11 SFac= 1.00D+00 NAtFMM=   60 NAOKFM=F Big=F
 Integral buffers will be    131072 words long.
 Raffenetti 2 integral format.
 Two-electron integral symmetry is turned on.
 One-electron integrals computed using PRISM.
 NBasis=   213 RedAO= T EigKep=  1.46D-06  NBF=   158    55
 NBsUse=   213 1.00D-06 EigRej= -1.00D+00 NBFU=   158    55
 Initial guess from the checkpoint file:  "frequency_chks/124-12_-ClBzNeutralRadical_Freq.chk"
 B after Tr=     0.000000    0.000000    0.000000
         Rot=    0.999971    0.000000   -0.000000   -0.007651 Ang=  -0.88 deg.
 Initial guess orbital symmetries:
 Alpha Orbitals:
       Occupied  (A') (A') (A') (A') (A') (A') (A') (A') (A') (A')
                 (A') (A') (A") (A') (A") (A') (A') (A') (A') (A')
                 (A') (A') (A') (A') (A') (A') (A') (A") (A') (A')
                 (A") (A") (A') (A') (A") (A') (A")
       Virtual   (A") (A") (A') (A') (A') (A') (A') (A") (A') (A')
                 (A") (A') (A") (A') (A') (A") (A') (A') (A") (A')
                 (A") (A') (A') (A') (A") (A') (A') (A') (A") (A')
                 (A') (A") (A') (A') (A') (A') (A') (A') (A') (A')
                 (A') (A') (A') (A') (A') (A') (A') (A") (A') (A')
                 (A') (A') (A") (A') (A') (A") (A') (A') (A") (A")
                 (A') (A") (A') (A") (A') (A') (A") (A') (A') (A')
                 (A') (A') (A") (A') (A') (A') (A') (A') (A') (A")
                 (A") (A') (A") (A') (A') (A') (A') (A") (A') (A")
                 (A') (A") (A') (A') (A") (A') (A') (A') (A") (A")
                 (A') (A') (A') (A') (A") (A") (A') (A') (A") (A')
                 (A') (A') (A") (A') (A") (A') (A") (A') (A') (A")
                 (A') (A') (A") (A') (A") (A') (A") (A") (A') (A')
                 (A') (A') (A') (A') (A') (A') (A") (A') (A') (A')
                 (A') (A") (A") (A') (A") (A") (A') (A") (A') (A')
                 (A') (A') (A') (A') (A') (A') (A') (A') (A') (A')
                 (A') (A') (A') (A') (A') (A') (A') (A') (A") (A")
                 (A') (A') (A') (A') (A') (A')
 Beta  Orbitals:
       Occupied  (A') (A') (A') (A') (A') (A') (A') (A') (A') (A')
                 (A') (A') (A") (A') (A") (A') (A') (A') (A') (A')
                 (A') (A') (A') (A') (A') (A') (A') (A") (A') (A')
                 (A") (A") (A') (A') (A") (A")
       Virtual   (A') (A") (A') (A") (A') (A') (A') (A') (A") (A')
                 (A') (A") (A') (A") (A') (A') (A") (A') (A') (A")
                 (A') (A') (A') (A") (A') (A") (A') (A') (A') (A")
                 (A') (A') (A") (A') (A') (A') (A') (A') (A') (A')
                 (A') (A') (A') (A') (A') (A') (A') (A') (A") (A')
                 (A') (A') (A') (A") (A') (A') (A") (A') (A') (A')
                 (A") (A") (A") (A') (A") (A') (A') (A") (A') (A')
                 (A') (A') (A') (A") (A') (A') (A') (A') (A') (A')
                 (A") (A") (A') (A") (A') (A') (A') (A') (A") (A')
                 (A") (A') (A") (A') (A') (A") (A') (A') (A') (A")
                 (A") (A') (A') (A') (A') (A") (A") (A') (A') (A")
                 (A') (A') (A') (A") (A') (A") (A') (A") (A') (A')
                 (A") (A') (A') (A") (A') (A") (A') (A") (A") (A')
                 (A') (A') (A') (A') (A') (A') (A') (A") (A') (A')
                 (A') (A') (A") (A") (A') (A") (A") (A') (A") (A')
                 (A') (A') (A') (A') (A') (A') (A') (A') (A') (A')
                 (A') (A') (A') (A') (A') (A') (A') (A') (A') (A")
                 (A") (A') (A') (A') (A') (A') (A')
 Initial guess <Sx>= 0.0000 <Sy>= 0.0000 <Sz>= 0.5000 <S**2>= 0.7629 S= 0.5064
 ExpMin= 3.60D-02 ExpMax= 1.06D+05 ExpMxC= 3.62D+03 IAcc=3 IRadAn=         5 AccDes= 0.00D+00
 Harris functional with IExCor= 1009 and IRadAn=       5 diagonalized for initial guess.
 HarFok:  IExCor= 1009 AccDes= 0.00D+00 IRadAn=         5 IDoV= 1 UseB2=F ITyADJ=14
 ICtDFT=  3500011 ScaDFX=  1.000000  1.000000  1.000000  1.000000
 FoFCou: FMM=F IPFlag=           0 FMFlag=      100000 FMFlg1=           0
         NFxFlg=           0 DoJE=T BraDBF=F KetDBF=T FulRan=T
         wScrn=  0.000000 ICntrl=       500 IOpCl=  0 I1Cent=   200000004 NGrid=           0
         NMat0=    1 NMatS0=      1 NMatT0=    0 NMatD0=    1 NMtDS0=    0 NMtDT0=    0
 Petite list used in FoFCou.
 Keep R1 and R2 ints in memory in symmetry-blocked form, NReq=411615841.
 Requested convergence on RMS density matrix=1.00D-08 within 128 cycles.
 Requested convergence on MAX density matrix=1.00D-06.
 Requested convergence on             energy=1.00D-06.
 No special actions if energy rises.
 SCF Done:  E(UM062X) =  -1150.70911789     A.U. after   18 cycles
            NFock= 18  Conv=0.20D-08     -V/T= 2.0024
 <Sx>= 0.0000 <Sy>= 0.0000 <Sz>= 0.5000 <S**2>= 0.7625 S= 0.5062
 <L.S>=  0.00000000000    
 Annihilation of the first spin contaminant:
 S**2 before annihilation     0.7625,   after     0.7501
 Calling FoFJK, ICntrl=      2127 FMM=F ISym2X=1 I1Cent= 0 IOpClX= 1 NMat=1 NMatS=1 NMatT=0.
 ***** Axes restored to original set *****
 -------------------------------------------------------------------
 Center     Atomic                   Forces (Hartrees/Bohr)
 Number     Number              X              Y              Z
 -------------------------------------------------------------------
      1        6           0.007291217   -0.003131073   -0.000000000
      2        6          -0.004680251   -0.001651288    0.000000000
      3        6           0.004041471    0.002549417   -0.000000000
      4        6          -0.002948904   -0.001871900    0.000000000
      5        6           0.001013264   -0.000456847   -0.000000000
      6        6           0.003711700    0.004274070   -0.000000000
      7       17          -0.003454902   -0.002582913    0.000000000
      8       17          -0.004463206    0.003198451    0.000000000
      9        1          -0.000780775    0.000876592    0.000000000
     10        1           0.000308231   -0.000775303   -0.000000000
     11        1          -0.000037844   -0.000429205   -0.000000000
 -------------------------------------------------------------------
 Cartesian Forces:  Max     0.007291217 RMS     0.002504104

 GradGradGradGradGradGradGradGradGradGradGradGradGradGradGradGradGradGrad
 Berny optimization.
 Using GEDIIS/GDIIS optimizer.
 FormGI is forming the generalized inverse of G from B-inverse, IUseBI=4.
 Internal  Forces:  Max     0.005457469 RMS     0.001398994
 Search for a local minimum.
 Step number   2 out of a maximum of   57
 All quantities printed in internal units (Hartrees-Bohrs-Radians)
 Mixed Optimization -- RFO/linear search
 Update second derivatives using D2CorX and points    1    2
 DE= -3.48D-03 DEPred=-3.13D-03 R= 1.11D+00
 TightC=F SS=  1.41D+00  RLast= 1.37D-01 DXNew= 5.0454D-01 4.1041D-01
 Trust test= 1.11D+00 RLast= 1.37D-01 DXMaxT set to 4.10D-01
 ITU=  1  0
 Use linear search instead of GDIIS.
     Eigenvalues ---    0.01903   0.01932   0.01940   0.01992   0.02022
     Eigenvalues ---    0.02102   0.02171   0.02391   0.15808   0.16000
     Eigenvalues ---    0.16060   0.21735   0.22894   0.24434   0.25000
     Eigenvalues ---    0.25174   0.32021   0.33817   0.34024   0.35423
     Eigenvalues ---    0.36917   0.40449   0.41505   0.43453   0.44161
     Eigenvalues ---    0.50390   0.51342
 RFO step:  Lambda=-1.95754765D-04 EMin= 1.90314578D-02
 Quartic linear search produced a step of  0.15269.
 Iteration  1 RMS(Cart)=  0.00561544 RMS(Int)=  0.00002463
 Iteration  2 RMS(Cart)=  0.00003217 RMS(Int)=  0.00001252
 Iteration  3 RMS(Cart)=  0.00000000 RMS(Int)=  0.00001252
 ClnCor:  largest displacement from symmetrization is 2.16D-10 for atom     7.
 Variable       Old X    -DE/DX   Delta X   Delta X   Delta X     New X
                                 (Linear)    (Quad)   (Total)
    R1        2.64840  -0.00288  -0.00364  -0.00488  -0.00852   2.63988
    R2        2.64571  -0.00119  -0.00402  -0.00038  -0.00441   2.64129
    R3        3.24967   0.00546   0.00874   0.00985   0.01859   3.26827
    R4        2.58130   0.00268  -0.00086   0.00698   0.00614   2.58744
    R5        2.04404   0.00089  -0.00455   0.00670   0.00215   2.04619
    R6        2.58773   0.00292  -0.00059   0.00749   0.00692   2.59466
    R7        2.63633  -0.00105  -0.00319   0.00000  -0.00319   2.63314
    R8        2.04410   0.00064  -0.00429   0.00562   0.00132   2.04542
    R9        2.63222  -0.00018  -0.00450   0.00288  -0.00163   2.63058
   R10        2.04566   0.00043  -0.00494   0.00546   0.00052   2.04618
   R11        3.25944   0.00430   0.00875   0.00650   0.01525   3.27469
    A1        2.08744   0.00102   0.00027   0.00323   0.00348   2.09092
    A2        2.08134  -0.00149   0.00040  -0.00657  -0.00617   2.07518
    A3        2.11441   0.00047  -0.00066   0.00334   0.00268   2.11709
    A4        2.03903   0.00064   0.00507  -0.00084   0.00425   2.04328
    A5        2.10043  -0.00110  -0.00446  -0.00362  -0.00809   2.09234
    A6        2.14372   0.00047  -0.00061   0.00446   0.00384   2.14757
    A7        2.20428  -0.00266  -0.00829  -0.00405  -0.01230   2.19199
    A8        2.02823   0.00105   0.00334   0.00374   0.00709   2.03532
    A9        2.13921   0.00002  -0.00119   0.00168   0.00049   2.13970
   A10        2.11575  -0.00107  -0.00216  -0.00542  -0.00758   2.10817
   A11        2.10524  -0.00045   0.00187  -0.00432  -0.00248   2.10277
   A12        2.10611   0.00026   0.00165   0.00030   0.00195   2.10806
   A13        2.07183   0.00019  -0.00351   0.00403   0.00052   2.07236
   A14        2.10214   0.00040  -0.00226   0.00224  -0.00005   2.10209
   A15        2.10730   0.00032   0.00098   0.00138   0.00238   2.10968
   A16        2.07374  -0.00072   0.00128  -0.00362  -0.00232   2.07142
    D1       -0.00000  -0.00000   0.00000  -0.00000   0.00000   0.00000
    D2        3.14159  -0.00000   0.00000  -0.00000   0.00000   3.14159
    D3        3.14159  -0.00000   0.00000   0.00000   0.00000   3.14159
    D4       -0.00000  -0.00000   0.00000  -0.00000   0.00000   0.00000
    D5        0.00000   0.00000   0.00000   0.00000   0.00000   0.00000
    D6        3.14159   0.00000   0.00000   0.00000   0.00000   3.14159
    D7        3.14159   0.00000   0.00000  -0.00000   0.00000   3.14159
    D8       -0.00000  -0.00000   0.00000  -0.00000   0.00000   0.00000
    D9        0.00000   0.00000   0.00000   0.00000  -0.00000   0.00000
   D10        3.14159   0.00000   0.00000   0.00000   0.00000   3.14159
   D11       -0.00000   0.00000   0.00000   0.00000   0.00000   0.00000
   D12        3.14159   0.00000   0.00000   0.00000   0.00000   3.14159
   D13        0.00000  -0.00000   0.00000  -0.00000  -0.00000   0.00000
   D14        3.14159   0.00000   0.00000  -0.00000   0.00000   3.14159
   D15        3.14159  -0.00000   0.00000  -0.00000   0.00000   3.14159
   D16        0.00000   0.00000   0.00000  -0.00000   0.00000   0.00000
   D17       -0.00000  -0.00000   0.00000   0.00000   0.00000   0.00000
   D18        3.14159  -0.00000   0.00000  -0.00000   0.00000   3.14159
   D19        3.14159  -0.00000   0.00000  -0.00000   0.00000   3.14159
   D20        0.00000  -0.00000   0.00000  -0.00000   0.00000   0.00000
         Item               Value     Threshold  Converged?
 Maximum Force            0.005457     0.000450     NO 
 RMS     Force            0.001399     0.000300     NO 
 Maximum Displacement     0.021578     0.001800     NO 
 RMS     Displacement     0.005620     0.001200     NO 
 Predicted change in Energy=-1.599683D-04
 GradGradGradGradGradGradGradGradGradGradGradGradGradGradGradGradGradGrad

                          Input orientation:                          
 ---------------------------------------------------------------------
 Center     Atomic      Atomic             Coordinates (Angstroms)
 Number     Number       Type             X           Y           Z
 ---------------------------------------------------------------------
      1          6           0       -3.149344    0.173315    0.000000
      2          6           0       -1.959506    0.905292   -0.000000
      3          6           0       -0.789932    0.193365   -0.000000
      4          6           0       -0.687878   -1.175870   -0.000000
      5          6           0       -1.883779   -1.890975   -0.000000
      6          6           0       -3.105477   -1.223709   -0.000000
      7         17           0       -4.564146   -2.159229    0.000000
      8         17           0       -4.654591    1.025004    0.000000
      9          1           0       -1.991956    1.987602   -0.000000
     10          1           0        0.264847   -1.689568   -0.000000
     11          1           0       -1.881988   -2.973766   -0.000000
 ---------------------------------------------------------------------
                    Distance matrix (angstroms):
                    1          2          3          4          5
     1  C    0.000000
     2  C    1.396963   0.000000
     3  C    2.359498   1.369213   0.000000
     4  C    2.806976   2.438908   1.373033   0.000000
     5  C    2.421352   2.797292   2.353928   1.393397   0.000000
     6  C    1.397713   2.417829   2.714746   2.418072   1.392045
     7  Cl   2.728080   4.021870   4.447403   3.999056   2.693757
     8  Cl   1.729492   2.697743   3.953127   4.536371   4.022478
     9  H    2.152019   1.082796   2.159664   3.421720   3.880085
    10  H    3.889349   3.417754   2.158239   1.082391   2.158045
    11  H    3.392685   3.879832   3.350120   2.158317   1.082793
                    6          7          8          9         10
     6  C    0.000000
     7  Cl   1.732891   0.000000
     8  Cl   2.730653   3.185517   0.000000
     9  H    3.398889   4.879792   2.831293   0.000000
    10  H    3.402368   4.851779   5.618698   4.314480   0.000000
    11  H    2.135328   2.803113   4.865952   4.962587   2.501613
                   11
    11  H    0.000000
 Stoichiometry    C6H3Cl2(2)
 Framework group  CS[SG(C6H3Cl2)]
 Deg. of freedom    19
 Full point group                 CS      NOp   2
 Largest Abelian subgroup         CS      NOp   2
 Largest concise Abelian subgroup C1      NOp   1
                         Standard orientation:                         
 ---------------------------------------------------------------------
 Center     Atomic      Atomic             Coordinates (Angstroms)
 Number     Number       Type             X           Y           Z
 ---------------------------------------------------------------------
      1          6           0        0.043488   -0.720897   -0.000000
      2          6           0        1.276728   -1.377117    0.000000
      3          6           0        2.399545   -0.593520    0.000000
      4          6           0        2.415866    0.779416    0.000000
      5          6           0        1.177629    1.418419    0.000000
      6          6           0        0.000000    0.676139    0.000000
      7         17           0       -1.514261    1.518710   -0.000000
      8         17           0       -1.405615   -1.664953   -0.000000
      9          1           0        1.311952   -2.459341    0.000000
     10          1           0        3.334640    1.351626    0.000000
     11          1           0        1.111776    2.499207    0.000000
 ---------------------------------------------------------------------
 Rotational constants (GHZ):           1.9379237           1.4887071           0.8419351
 Standard basis: 6-311++G(d,p) (5D, 7F)
 There are   166 symmetry adapted cartesian basis functions of A'  symmetry.
 There are    55 symmetry adapted cartesian basis functions of A"  symmetry.
 There are   158 symmetry adapted basis functions of A'  symmetry.
 There are    55 symmetry adapted basis functions of A"  symmetry.
   213 basis functions,   349 primitive gaussians,   221 cartesian basis functions
    37 alpha electrons       36 beta electrons
       nuclear repulsion energy       458.2978843099 Hartrees.
 NAtoms=   11 NActive=   11 NUniq=   11 SFac= 1.00D+00 NAtFMM=   60 NAOKFM=F Big=F
 Integral buffers will be    131072 words long.
 Raffenetti 2 integral format.
 Two-electron integral symmetry is turned on.
 One-electron integrals computed using PRISM.
 NBasis=   213 RedAO= T EigKep=  1.45D-06  NBF=   158    55
 NBsUse=   213 1.00D-06 EigRej= -1.00D+00 NBFU=   158    55
 Initial guess from the checkpoint file:  "frequency_chks/124-12_-ClBzNeutralRadical_Freq.chk"
 B after Tr=    -0.000000    0.000000   -0.000000
         Rot=    0.999998   -0.000000   -0.000000   -0.002232 Ang=  -0.26 deg.
 Initial guess orbital symmetries:
 Alpha Orbitals:
       Occupied  (A') (A') (A') (A') (A') (A') (A') (A') (A') (A')
                 (A') (A') (A") (A') (A") (A') (A') (A') (A') (A')
                 (A') (A') (A') (A') (A') (A') (A') (A") (A') (A')
                 (A") (A") (A') (A') (A") (A') (A")
       Virtual   (A") (A") (A') (A') (A') (A') (A') (A') (A") (A')
                 (A') (A") (A") (A') (A') (A") (A') (A') (A") (A')
                 (A') (A") (A') (A') (A") (A') (A') (A') (A") (A')
                 (A') (A") (A') (A') (A') (A') (A') (A') (A') (A')
                 (A') (A') (A') (A') (A') (A') (A') (A") (A') (A')
                 (A') (A') (A") (A') (A') (A") (A') (A') (A") (A")
                 (A') (A") (A') (A") (A') (A') (A") (A') (A') (A')
                 (A') (A') (A") (A') (A') (A') (A') (A') (A') (A")
                 (A") (A') (A') (A") (A') (A') (A') (A") (A') (A")
                 (A') (A") (A') (A') (A") (A') (A') (A") (A') (A")
                 (A') (A') (A') (A') (A") (A") (A') (A') (A") (A')
                 (A') (A') (A") (A') (A") (A') (A") (A') (A') (A")
                 (A') (A') (A") (A') (A") (A') (A") (A") (A') (A')
                 (A') (A') (A') (A') (A') (A") (A') (A') (A') (A')
                 (A') (A") (A") (A') (A") (A") (A') (A") (A') (A')
                 (A') (A') (A') (A') (A') (A') (A') (A') (A') (A')
                 (A') (A') (A') (A') (A') (A') (A') (A') (A") (A")
                 (A') (A') (A') (A') (A') (A')
 Beta  Orbitals:
       Occupied  (A') (A') (A') (A') (A') (A') (A') (A') (A') (A')
                 (A') (A') (A") (A') (A") (A') (A') (A') (A') (A')
                 (A') (A') (A') (A') (A') (A') (A') (A") (A') (A')
                 (A") (A") (A') (A') (A") (A")
       Virtual   (A') (A") (A') (A") (A') (A') (A') (A') (A") (A')
                 (A') (A") (A') (A") (A') (A') (A") (A') (A') (A")
                 (A') (A') (A') (A") (A') (A") (A') (A') (A') (A")
                 (A') (A') (A') (A") (A') (A') (A') (A') (A') (A')
                 (A') (A') (A') (A') (A') (A') (A') (A') (A") (A')
                 (A') (A') (A') (A") (A') (A') (A") (A') (A') (A')
                 (A") (A") (A') (A") (A") (A') (A') (A") (A') (A')
                 (A') (A') (A') (A") (A') (A') (A') (A') (A') (A')
                 (A") (A") (A') (A') (A") (A') (A') (A') (A") (A')
                 (A") (A') (A") (A') (A') (A") (A') (A') (A") (A')
                 (A") (A') (A') (A') (A') (A") (A") (A') (A') (A")
                 (A') (A') (A') (A") (A') (A") (A') (A") (A') (A')
                 (A") (A') (A') (A") (A') (A") (A') (A") (A") (A')
                 (A') (A') (A') (A') (A') (A') (A") (A') (A') (A')
                 (A') (A') (A") (A") (A') (A") (A") (A') (A") (A')
                 (A') (A') (A') (A') (A') (A') (A') (A') (A') (A')
                 (A') (A') (A') (A') (A') (A') (A') (A') (A') (A")
                 (A") (A') (A') (A') (A') (A') (A')
 Initial guess <Sx>= 0.0000 <Sy>= 0.0000 <Sz>= 0.5000 <S**2>= 0.7625 S= 0.5063
 ExpMin= 3.60D-02 ExpMax= 1.06D+05 ExpMxC= 3.62D+03 IAcc=3 IRadAn=         5 AccDes= 0.00D+00
 Harris functional with IExCor= 1009 and IRadAn=       5 diagonalized for initial guess.
 HarFok:  IExCor= 1009 AccDes= 0.00D+00 IRadAn=         5 IDoV= 1 UseB2=F ITyADJ=14
 ICtDFT=  3500011 ScaDFX=  1.000000  1.000000  1.000000  1.000000
 FoFCou: FMM=F IPFlag=           0 FMFlag=      100000 FMFlg1=           0
         NFxFlg=           0 DoJE=T BraDBF=F KetDBF=T FulRan=T
         wScrn=  0.000000 ICntrl=       500 IOpCl=  0 I1Cent=   200000004 NGrid=           0
         NMat0=    1 NMatS0=      1 NMatT0=    0 NMatD0=    1 NMtDS0=    0 NMtDT0=    0
 Petite list used in FoFCou.
 Keep R1 and R2 ints in memory in symmetry-blocked form, NReq=411615841.
 Requested convergence on RMS density matrix=1.00D-08 within 128 cycles.
 Requested convergence on MAX density matrix=1.00D-06.
 Requested convergence on             energy=1.00D-06.
 No special actions if energy rises.
 SCF Done:  E(UM062X) =  -1150.70929050     A.U. after   16 cycles
            NFock= 16  Conv=0.57D-08     -V/T= 2.0025
 <Sx>= 0.0000 <Sy>= 0.0000 <Sz>= 0.5000 <S**2>= 0.7627 S= 0.5063
 <L.S>=  0.00000000000    
 Annihilation of the first spin contaminant:
 S**2 before annihilation     0.7627,   after     0.7501
 Calling FoFJK, ICntrl=      2127 FMM=F ISym2X=1 I1Cent= 0 IOpClX= 1 NMat=1 NMatS=1 NMatT=0.
 ***** Axes restored to original set *****
 -------------------------------------------------------------------
 Center     Atomic                   Forces (Hartrees/Bohr)
 Number     Number              X              Y              Z
 -------------------------------------------------------------------
      1        6           0.001012283   -0.001518743   -0.000000000
      2        6          -0.000169581    0.000585886    0.000000000
      3        6           0.000373015   -0.000308058   -0.000000000
      4        6          -0.000212525    0.000494136    0.000000000
      5        6          -0.000087898   -0.000487162    0.000000000
      6        6          -0.000139224    0.001055935    0.000000000
      7       17          -0.000348231   -0.000133505    0.000000000
      8       17          -0.000833833    0.000411553    0.000000000
      9        1           0.000053880    0.000134588   -0.000000000
     10        1           0.000223505   -0.000085295   -0.000000000
     11        1           0.000128609   -0.000149336   -0.000000000
 -------------------------------------------------------------------
 Cartesian Forces:  Max     0.001518743 RMS     0.000451494

 GradGradGradGradGradGradGradGradGradGradGradGradGradGradGradGradGradGrad
 Berny optimization.
 Using GEDIIS/GDIIS optimizer.
 FormGI is forming the generalized inverse of G from B-inverse, IUseBI=4.
 Internal  Forces:  Max     0.000928695 RMS     0.000232604
 Search for a local minimum.
 Step number   3 out of a maximum of   57
 All quantities printed in internal units (Hartrees-Bohrs-Radians)
 Mixed Optimization -- En-DIIS/RFO-DIIS
 Update second derivatives using D2CorX and points    1    2    3
 DE= -1.73D-04 DEPred=-1.60D-04 R= 1.08D+00
 TightC=F SS=  1.41D+00  RLast= 3.48D-02 DXNew= 6.9022D-01 1.0442D-01
 Trust test= 1.08D+00 RLast= 3.48D-02 DXMaxT set to 4.10D-01
 ITU=  1  1  0
 Use linear search instead of GDIIS.
     Eigenvalues ---    0.01903   0.01932   0.01940   0.01992   0.02022
     Eigenvalues ---    0.02104   0.02173   0.02389   0.15915   0.16008
     Eigenvalues ---    0.16090   0.20332   0.23588   0.24214   0.25004
     Eigenvalues ---    0.25355   0.29717   0.33807   0.34033   0.35425
     Eigenvalues ---    0.36921   0.40387   0.41519   0.44119   0.44856
     Eigenvalues ---    0.50556   0.51286
 RFO step:  Lambda=-6.81383236D-06 EMin= 1.90314976D-02
 Quartic linear search produced a step of  0.08628.
 Iteration  1 RMS(Cart)=  0.00095187 RMS(Int)=  0.00000058
 Iteration  2 RMS(Cart)=  0.00000073 RMS(Int)=  0.00000035
 ClnCor:  largest displacement from symmetrization is 2.75D-10 for atom     7.
 Variable       Old X    -DE/DX   Delta X   Delta X   Delta X     New X
                                 (Linear)    (Quad)   (Total)
    R1        2.63988   0.00031  -0.00074   0.00119   0.00045   2.64033
    R2        2.64129  -0.00064  -0.00038  -0.00146  -0.00184   2.63945
    R3        3.26827   0.00093   0.00160   0.00182   0.00342   3.27169
    R4        2.58744   0.00029   0.00053   0.00024   0.00077   2.58821
    R5        2.04619   0.00013   0.00019   0.00017   0.00036   2.04655
    R6        2.59466  -0.00008   0.00060  -0.00058   0.00002   2.59468
    R7        2.63314   0.00034  -0.00028   0.00095   0.00067   2.63381
    R8        2.04542   0.00024   0.00011   0.00056   0.00067   2.04610
    R9        2.63058   0.00034  -0.00014   0.00081   0.00066   2.63125
   R10        2.04618   0.00015   0.00004   0.00032   0.00036   2.04654
   R11        3.27469   0.00037   0.00132   0.00040   0.00171   3.27640
    A1        2.09092   0.00040   0.00030   0.00150   0.00180   2.09272
    A2        2.07518  -0.00011  -0.00053  -0.00007  -0.00060   2.07457
    A3        2.11709  -0.00029   0.00023  -0.00143  -0.00120   2.11589
    A4        2.04328  -0.00027   0.00037  -0.00144  -0.00107   2.04221
    A5        2.09234   0.00019  -0.00070   0.00140   0.00071   2.09304
    A6        2.14757   0.00008   0.00033   0.00003   0.00036   2.14793
    A7        2.19199  -0.00008  -0.00106   0.00029  -0.00077   2.19122
    A8        2.03532   0.00022   0.00061   0.00083   0.00145   2.03677
    A9        2.13970  -0.00015   0.00004  -0.00089  -0.00084   2.13885
   A10        2.10817  -0.00007  -0.00065   0.00005  -0.00060   2.10756
   A11        2.10277  -0.00025  -0.00021  -0.00101  -0.00122   2.10154
   A12        2.10806  -0.00001   0.00017  -0.00038  -0.00021   2.10785
   A13        2.07236   0.00026   0.00005   0.00139   0.00144   2.07379
   A14        2.10209  -0.00002  -0.00000  -0.00018  -0.00018   2.10191
   A15        2.10968  -0.00011   0.00021  -0.00057  -0.00036   2.10932
   A16        2.07142   0.00013  -0.00020   0.00074   0.00054   2.07196
    D1        0.00000   0.00000   0.00000   0.00000  -0.00000   0.00000
    D2        3.14159   0.00000   0.00000   0.00000   0.00000   3.14159
    D3        3.14159  -0.00000   0.00000  -0.00000   0.00000   3.14159
    D4       -0.00000   0.00000   0.00000   0.00000   0.00000   0.00000
    D5        0.00000   0.00000   0.00000  -0.00000   0.00000   0.00000
    D6        3.14159  -0.00000   0.00000  -0.00000   0.00000   3.14159
    D7        3.14159   0.00000   0.00000   0.00000   0.00000   3.14159
    D8        0.00000  -0.00000   0.00000  -0.00000  -0.00000   0.00000
    D9        0.00000  -0.00000   0.00000  -0.00000  -0.00000   0.00000
   D10        3.14159  -0.00000   0.00000  -0.00000   0.00000   3.14159
   D11       -0.00000  -0.00000   0.00000  -0.00000   0.00000   0.00000
   D12        3.14159   0.00000   0.00000  -0.00000   0.00000   3.14159
   D13        0.00000   0.00000   0.00000   0.00000  -0.00000   0.00000
   D14        3.14159   0.00000   0.00000  -0.00000   0.00000   3.14159
   D15        3.14159   0.00000   0.00000   0.00000   0.00000   3.14159
   D16        0.00000  -0.00000   0.00000   0.00000  -0.00000   0.00000
   D17        0.00000   0.00000   0.00000   0.00000   0.00000   0.00000
   D18        3.14159   0.00000   0.00000   0.00000   0.00000   3.14159
   D19        3.14159  -0.00000   0.00000   0.00000   0.00000   3.14159
   D20        0.00000   0.00000   0.00000   0.00000   0.00000   0.00000
         Item               Value     Threshold  Converged?
 Maximum Force            0.000929     0.000450     NO 
 RMS     Force            0.000233     0.000300     YES
 Maximum Displacement     0.003379     0.001800     NO 
 RMS     Displacement     0.000952     0.001200     YES
 Predicted change in Energy=-4.498946D-06
 GradGradGradGradGradGradGradGradGradGradGradGradGradGradGradGradGradGrad

                          Input orientation:                          
 ---------------------------------------------------------------------
 Center     Atomic      Atomic             Coordinates (Angstroms)
 Number     Number       Type             X           Y           Z
 ---------------------------------------------------------------------
      1          6           0       -3.148352    0.172434    0.000000
      2          6           0       -1.959109    0.905835   -0.000000
      3          6           0       -0.789171    0.193724   -0.000000
      4          6           0       -0.688140   -1.175598   -0.000000
      5          6           0       -1.883847   -1.891721   -0.000000
      6          6           0       -3.105503   -1.223646   -0.000000
      7         17           0       -4.565934   -2.158095    0.000000
[...]
      7       17           0.000096049   -0.000006405   -0.000000000
      8       17          -0.000142437    0.000155486    0.000000000
      9        1           0.000021791   -0.000032285   -0.000000000
     10        1           0.000020930    0.000004632   -0.000000000
     11        1           0.000047720    0.000012330   -0.000000000
 -------------------------------------------------------------------
 Cartesian Forces:  Max     0.000299044 RMS     0.000111046
 FormGI is forming the generalized inverse of G from B-inverse, IUseBI=4.

 GradGradGradGradGradGradGradGradGradGradGradGradGradGradGradGradGradGrad
 Berny optimization.
 Internal  Forces:  Max     0.000200852 RMS     0.000063337
 Search for a local minimum.
 Step number   1 out of a maximum of    2
 All quantities printed in internal units (Hartrees-Bohrs-Radians)
 Second derivative matrix not updated -- analytic derivatives used.
 ITU=  0
     Eigenvalues ---    0.01619   0.01807   0.01964   0.02480   0.02793
     Eigenvalues ---    0.02936   0.03162   0.03420   0.10539   0.10909
     Eigenvalues ---    0.11712   0.15701   0.17401   0.18878   0.19386
     Eigenvalues ---    0.21881   0.25585   0.29126   0.31453   0.36541
     Eigenvalues ---    0.36601   0.36742   0.42930   0.45166   0.47731
     Eigenvalues ---    0.49712   0.52656
 Angle between quadratic step and forces=  18.32 degrees.
 Linear search not attempted -- first point.
 Iteration  1 RMS(Cart)=  0.00035071 RMS(Int)=  0.00000009
 Iteration  2 RMS(Cart)=  0.00000012 RMS(Int)=  0.00000002
 ClnCor:  largest displacement from symmetrization is 3.18D-11 for atom     7.
 Variable       Old X    -DE/DX   Delta X   Delta X   Delta X     New X
                                 (Linear)    (Quad)   (Total)
    R1        2.64033   0.00002   0.00000   0.00008   0.00008   2.64041
    R2        2.63945   0.00005   0.00000  -0.00010  -0.00010   2.63935
    R3        3.27169   0.00020   0.00000   0.00103   0.00103   3.27272
    R4        2.58821  -0.00004   0.00000  -0.00007  -0.00007   2.58814
    R5        2.04655  -0.00003   0.00000  -0.00015  -0.00015   2.04640
    R6        2.59468  -0.00008   0.00000  -0.00021  -0.00021   2.59447
    R7        2.63381  -0.00003   0.00000  -0.00006  -0.00006   2.63375
    R8        2.04610   0.00002   0.00000   0.00006   0.00006   2.04615
    R9        2.63125   0.00005   0.00000   0.00022   0.00022   2.63147
   R10        2.04654  -0.00001   0.00000  -0.00005  -0.00005   2.04649
   R11        3.27640  -0.00008   0.00000  -0.00037  -0.00037   3.27604
    A1        2.09272   0.00009   0.00000   0.00075   0.00075   2.09347
    A2        2.07457  -0.00014   0.00000  -0.00074  -0.00074   2.07384
    A3        2.11589   0.00006   0.00000  -0.00002  -0.00002   2.11588
    A4        2.04221  -0.00016   0.00000  -0.00101  -0.00101   2.04120
    A5        2.09304   0.00010   0.00000   0.00059   0.00059   2.09363
    A6        2.14793   0.00006   0.00000   0.00042   0.00042   2.14835
    A7        2.19122   0.00014   0.00000   0.00064   0.00064   2.19185
    A8        2.03677   0.00002   0.00000   0.00015   0.00015   2.03692
    A9        2.13885  -0.00003   0.00000  -0.00032  -0.00032   2.13854
   A10        2.10756   0.00001   0.00000   0.00016   0.00016   2.10773
   A11        2.10154  -0.00007   0.00000  -0.00040  -0.00040   2.10115
   A12        2.10785  -0.00002   0.00000  -0.00019  -0.00019   2.10766
   A13        2.07379   0.00009   0.00000   0.00059   0.00059   2.07438
   A14        2.10191  -0.00001   0.00000  -0.00014  -0.00014   2.10177
   A15        2.10932   0.00011   0.00000   0.00045   0.00046   2.10977
   A16        2.07196  -0.00009   0.00000  -0.00032  -0.00032   2.07164
    D1       -0.00000  -0.00000   0.00000   0.00000   0.00000   0.00000
    D2        3.14159   0.00000   0.00000   0.00000   0.00000   3.14159
    D3        3.14159  -0.00000   0.00000   0.00000   0.00000   3.14159
    D4       -0.00000  -0.00000   0.00000   0.00000   0.00000   0.00000
    D5       -0.00000   0.00000   0.00000  -0.00000   0.00000   0.00000
    D6        3.14159  -0.00000   0.00000  -0.00000   0.00000   3.14159
    D7        3.14159   0.00000   0.00000  -0.00000   0.00000   3.14159
    D8        0.00000  -0.00000   0.00000  -0.00000   0.00000   0.00000
    D9        0.00000  -0.00000   0.00000  -0.00000  -0.00000   0.00000
   D10        3.14159  -0.00000   0.00000  -0.00000   0.00000   3.14159
   D11       -0.00000  -0.00000   0.00000  -0.00000   0.00000   0.00000
   D12        3.14159   0.00000   0.00000   0.00000   0.00000   3.14159
   D13        0.00000   0.00000   0.00000   0.00000   0.00000   0.00000
   D14        3.14159   0.00000   0.00000   0.00000   0.00000   3.14159
   D15        3.14159  -0.00000   0.00000   0.00000   0.00000   3.14159
   D16        0.00000   0.00000   0.00000   0.00000  -0.00000   0.00000
   D17        0.00000  -0.00000   0.00000   0.00000   0.00000   0.00000
   D18        3.14159   0.00000   0.00000   0.00000   0.00000   3.14159
   D19        3.14159  -0.00000   0.00000  -0.00000   0.00000   3.14159
   D20       -0.00000   0.00000   0.00000   0.00000   0.00000   0.00000
         Item               Value     Threshold  Converged?
 Maximum Force            0.000201     0.000450     YES
 RMS     Force            0.000063     0.000300     YES
 Maximum Displacement     0.000996     0.001800     YES
 RMS     Displacement     0.000351     0.001200     YES
 Predicted change in Energy=-4.795987D-07
 Optimization completed.
    -- Stationary point found.
                           ----------------------------
                           !   Optimized Parameters   !
                           ! (Angstroms and Degrees)  !
 --------------------------                            --------------------------
 ! Name  Definition              Value          Derivative Info.                !
 --------------------------------------------------------------------------------
 ! R1    R(1,2)                  1.3972         -DE/DX =    0.0                 !
 ! R2    R(1,6)                  1.3967         -DE/DX =    0.0                 !
 ! R3    R(1,8)                  1.7313         -DE/DX =    0.0002              !
 ! R4    R(2,3)                  1.3696         -DE/DX =    0.0                 !
 ! R5    R(2,9)                  1.083          -DE/DX =    0.0                 !
 ! R6    R(3,4)                  1.373          -DE/DX =   -0.0001              !
 ! R7    R(4,5)                  1.3938         -DE/DX =    0.0                 !
 ! R8    R(4,10)                 1.0827         -DE/DX =    0.0                 !
 ! R9    R(5,6)                  1.3924         -DE/DX =    0.0001              !
 ! R10   R(5,11)                 1.083          -DE/DX =    0.0                 !
 ! R11   R(6,7)                  1.7338         -DE/DX =   -0.0001              !
 ! A1    A(2,1,6)              119.904          -DE/DX =    0.0001              !
 ! A2    A(2,1,8)              118.8642         -DE/DX =   -0.0001              !
 ! A3    A(6,1,8)              121.2318         -DE/DX =    0.0001              !
 ! A4    A(1,2,3)              117.0102         -DE/DX =   -0.0002              !
 ! A5    A(1,2,9)              119.9225         -DE/DX =    0.0001              !
 ! A6    A(3,2,9)              123.0673         -DE/DX =    0.0001              !
 ! A7    A(2,3,4)              125.5476         -DE/DX =    0.0001              !
 ! A8    A(3,4,5)              116.6981         -DE/DX =    0.0                 !
 ! A9    A(3,4,10)             122.5473         -DE/DX =    0.0                 !
 ! A10   A(5,4,10)             120.7546         -DE/DX =    0.0                 !
 ! A11   A(4,5,6)              120.4096         -DE/DX =   -0.0001              !
 ! A12   A(4,5,11)             120.7709         -DE/DX =    0.0                 !
 ! A13   A(6,5,11)             118.8195         -DE/DX =    0.0001              !
 ! A14   A(1,6,5)              120.4305         -DE/DX =    0.0                 !
 ! A15   A(1,6,7)              120.8549         -DE/DX =    0.0001              !
 ! A16   A(5,6,7)              118.7146         -DE/DX =   -0.0001              !
 ! D1    D(6,1,2,3)              0.0            -DE/DX =    0.0                 !
 ! D2    D(6,1,2,9)            180.0            -DE/DX =    0.0                 !
 ! D3    D(8,1,2,3)            180.0            -DE/DX =    0.0                 !
 ! D4    D(8,1,2,9)              0.0            -DE/DX =    0.0                 !
 ! D5    D(2,1,6,5)              0.0            -DE/DX =    0.0                 !
 ! D6    D(2,1,6,7)            180.0            -DE/DX =    0.0                 !
 ! D7    D(8,1,6,5)            180.0            -DE/DX =    0.0                 !
 ! D8    D(8,1,6,7)              0.0            -DE/DX =    0.0                 !
 ! D9    D(1,2,3,4)              0.0            -DE/DX =    0.0                 !
 ! D10   D(9,2,3,4)            180.0            -DE/DX =    0.0                 !
 ! D11   D(2,3,4,5)              0.0            -DE/DX =    0.0                 !
 ! D12   D(2,3,4,10)           180.0            -DE/DX =    0.0                 !
 ! D13   D(3,4,5,6)              0.0            -DE/DX =    0.0                 !
 ! D14   D(3,4,5,11)           180.0            -DE/DX =    0.0                 !
 ! D15   D(10,4,5,6)           180.0            -DE/DX =    0.0                 !
 ! D16   D(10,4,5,11)            0.0            -DE/DX =    0.0                 !
 ! D17   D(4,5,6,1)              0.0            -DE/DX =    0.0                 !
 ! D18   D(4,5,6,7)            180.0            -DE/DX =    0.0                 !
 ! D19   D(11,5,6,1)           180.0            -DE/DX =    0.0                 !
 ! D20   D(11,5,6,7)             0.0            -DE/DX =    0.0                 !
 --------------------------------------------------------------------------------
 GradGradGradGradGradGradGradGradGradGradGradGradGradGradGradGradGradGrad


 ----------------------------------------------------------------------

 Electric dipole moment (input orientation):
 (Debye = 10**-18 statcoulomb cm , SI units = C m)
                  (au)            (Debye)         (10**-30 SI)
   Tot        0.757467D+00      0.192529D+01      0.642207D+01
   x          0.743619D+00      0.189009D+01      0.630466D+01
   y         -0.144177D+00     -0.366461D+00     -0.122238D+01
   z          0.000000D+00      0.000000D+00      0.000000D+00

 Dipole polarizability, Alpha (input orientation).
 (esu units = cm**3 , SI units = C**2 m**2 J**-1)
 Alpha(0;0):
               (au)            (10**-24 esu)      (10**-40 SI)
   iso        0.872336D+02      0.129267D+02      0.143829D+02
   aniso      0.569811D+02      0.844372D+01      0.939491D+01
   xx         0.112966D+03      0.167398D+02      0.186255D+02
   yx        -0.214907D+01     -0.318460D+00     -0.354334D+00
   yy         0.984725D+02      0.145921D+02      0.162359D+02
   zx         0.000000D+00      0.000000D+00      0.000000D+00
   zy         0.000000D+00      0.000000D+00      0.000000D+00
   zz         0.502624D+02      0.744812D+01      0.828716D+01

 ----------------------------------------------------------------------

 Dipole orientation:
     6         -0.15465957         -0.79768605         -5.90277666
     6          0.18573646          0.95797099         -3.96031843
     6          0.01437723          0.07415327         -1.53373448
     6         -0.46223514         -2.38406530         -0.85376948
     6         -0.79697245         -4.11053644         -2.81443544
     6         -0.64470392         -3.32518263         -5.32112616
    17         -1.07465967         -5.54276089         -7.69437375
    17          0.04294904          0.22151783         -9.00537482
     1          0.56572950          2.91785710         -4.41066823
     1         -0.57840540         -2.98323542          1.09917974
     1         -1.17919973         -6.08194606         -2.41974121

 Electric dipole moment (dipole orientation):
 (Debye = 10**-18 statcoulomb cm , SI units = C m)
                  (au)            (Debye)         (10**-30 SI)
   Tot        0.757467D+00      0.192529D+01      0.642207D+01
   x          0.000000D+00      0.000000D+00      0.000000D+00
   y          0.000000D+00      0.000000D+00      0.000000D+00
   z          0.757467D+00      0.192529D+01      0.642207D+01

 Dipole polarizability, Alpha (dipole orientation).
 (esu units = cm**3 , SI units = C**2 m**2 J**-1)
 Alpha(0;0):
               (au)            (10**-24 esu)      (10**-40 SI)
   iso        0.872336D+02      0.129267D+02      0.143829D+02
   aniso      0.569811D+02      0.844372D+01      0.939491D+01
   xx         0.519990D+02      0.770546D+01      0.857348D+01
   yx         0.895662D+01      0.132723D+01      0.147675D+01
   yy         0.964579D+02      0.142936D+02      0.159038D+02
   zx         0.136067D+00      0.201630D-01      0.224344D-01
   zy         0.701790D+00      0.103995D+00      0.115710D+00
   zz         0.113244D+03      0.167810D+02      0.186714D+02

 ----------------------------------------------------------------------
 1\1\GINC-SH02-01N46\Freq\UM062X\6-311++G(d,p)\C6H3Cl2(2)\JLAPIER\10-De
 c-2025\0\\#N Geom=AllCheck Guess=TCheck SCRF=Check GenChk UM062X/6-311
 ++G(d,p) Freq\\Neutral Radical (removed 4) 12_\\0,2\C,-3.1483515976,0.
 1724336871,0.\C,-1.9591091911,0.9058353259,0.\C,-0.7891713237,0.193724
 013,0.\C,-0.6881399754,-1.1755979933,0.\C,-1.8838468824,-1.8917211574,
 0.\C,-3.1055028078,-1.2236460336,0.\Cl,-4.5659344691,-2.15809505,0.\Cl
 ,-4.6555901934,1.0242790929,0.\H,-1.9919835385,1.988323401,0.\H,0.2649
 480478,-1.6893739221,0.\H,-1.8810680687,-2.9747013636,0.\\Version=ES64
 L-G16RevB.01\State=2-A'\HF=-1150.7092956\S2=0.762667\S2-1=0.\S2A=0.750
 072\RMSD=9.669e-09\RMSF=1.110e-04\ZeroPoint=0.0690002\Thermal=0.075568
 4\Dipole=0.7436188,-0.1441767,0.\DipoleDeriv=0.7371666,-0.586126,0.,-0
 .4931186,0.3024775,0.,0.,0.,-0.0182532,-0.2413902,0.0898434,0.,-0.0063
 092,-0.0505353,0.,0.,0.,-0.0754044,-0.0770432,-0.0321325,0.,-0.0758787
 ,0.0240981,0.,0.,0.,-0.0735701,-0.0651783,-0.0702144,0.,-0.023808,-0.0
 427265,0.,0.,0.,-0.0849062,-0.0359368,-0.1113677,0.,-0.0369073,-0.0156
 172,0.,0.,0.,-0.1237004,0.5422102,0.6640159,0.,0.5721747,0.1818849,0.,
 0.,0.,-0.0014526,-0.4789583,-0.3198247,0.,-0.3145437,-0.2610445,0.,0.,
 0.,-0.0407455,-0.5628988,0.3308424,0.,0.3229189,-0.2423777,0.,0.,0.,-0
 .0392851,0.0928273,0.0143337,0.,0.0127355,0.0331506,0.,0.,0.,0.1571853
 ,0.0207307,0.0348038,0.,0.0414043,0.0687753,0.,0.,0.,0.1600141,0.06847
 08,-0.0141739,0.,0.0013323,0.0019149,0.,0.,0.,0.1401179\Polar=112.9657
 353,-2.1490743,98.472529,0.,0.,50.2624332\Quadrupole=0.7912171,2.25289
 83,-3.0441154,-1.7345597,0.,0.\PG=CS [SG(C6H3Cl2)]\NImag=0\\0.55547496
 ,0.03600997,0.60705923,0.,0.,0.11935340,-0.24030328,-0.05398988,0.,0.6
 2478211,-0.14124142,-0.17802125,0.,-0.04549329,0.75195247,0.,0.,-0.061
 66629,0.,0.,0.12227493,-0.06886977,-0.03576648,0.,-0.28813094,0.140798
 40,0.,0.44297512,0.04004208,0.07577592,0.,0.10148847,-0.18148331,0.,-0
 .14967480,0.59160956,0.,0.,0.01361296,0.,0.,-0.05199564,0.,0.,0.074795
 43,-0.01432529,-0.03688849,0.,0.03506349,0.03672320,0.,-0.10477852,0.0
 4541761,0.,0.70281533,-0.03526452,-0.06670726,0.,0.07854540,-0.0225149
 9,0.,0.00689330,-0.35534050,0.,-0.06760911,0.67556810,0.,0.,-0.0029501
 9,0.,0.,0.00592482,0.,0.,-0.05275993,0.,0.,0.12372040,0.03482438,0.093
 14055,0.,-0.07881750,-0.00157363,0.,0.04474022,-0.09199045,0.,-0.27881
 820,-0.04788604,0.,0.65763000,0.02550127,-0.02258995,0.,0.00159737,0.0
 0125579,0.,-0.02450548,-0.04153588,0.,-0.13678924,-0.17632717,0.,0.009
 09976,0.74788100,0.,0.,0.00644507,0.,0.,-0.00222003,0.,0.,0.01373182,0
 .,0.,-0.05979703,0.,0.,0.12853975,-0.10016638,-0.03288255,0.,0.0394810
 9,-0.02129783,0.,-0.02571595,0.03944499,0.,-0.05840711,-0.03913753,0.,
 -0.26633459,0.13525541,0.,0.57436711,0.04582497,-0.30811884,0.,-0.0878
 5055,-0.02343906,0.,0.03815395,-0.06709663,0.,0.02840021,0.07274796,0.
 ,0.05512849,-0.17335910,0.,-0.04318313,0.60745533,0.,0.,-0.06590796,0.
 ,0.,0.00903487,0.,0.,-0.00617221,0.,0.,0.00662275,0.,0.,-0.06296221,0.
 ,0.,0.12189126,-0.01592097,-0.00760612,0.,0.00125936,-0.00069005,0.,-0
 .00058247,-0.00217328,0.,-0.00038674,0.00613039,0.,-0.04063409,-0.0254
 7278,0.,-0.14180618,-0.06755820,0.,0.19592850,-0.03362659,-0.02028255,
 0.,0.00386884,-0.00421149,0.,-0.00088936,0.00011219,0.,0.00142033,0.00
 012599,0.,0.00045060,0.00435378,0.,-0.06358682,-0.07976017,0.,0.095708
 48,0.10604942,0.,0.,0.00353981,0.,0.,0.00355595,0.,0.,-0.00079162,0.,0
 .,0.00450044,0.,0.,0.00449648,0.,0.,-0.02178036,0.,0.,0.01035287,-0.14
 944363,0.06454364,0.,-0.04191523,0.02227208,0.,-0.00259645,-0.00593486
 ,0.,-0.00046166,0.00235620,0.,0.00204774,0.00092603,0.,-0.01821469,0.0
 0813650,0.,0.00348261,-0.00288727,0.,0.20680501,0.05927690,-0.07383684
 ,0.,-0.00244846,0.00512722,0.,-0.00114321,0.00023546,0.,0.00151375,0.0
 0029195,0.,-0.00451591,-0.00409120,0.,0.03375974,-0.01751522,0.,0.0035
 3117,-0.00722485,0.,-0.09069778,0.09638552,0.,0.,-0.02290385,0.,0.,0.0
 0497017,0.,0.,0.00471566,0.,0.,-0.00073328,0.,0.,0.00390565,0.,0.,0.00
 353082,0.,0.,-0.00116821,0.,0.,0.01079692,0.00236671,-0.02721422,0.,-0
 .05170832,0.01139628,0.,0.00317267,0.02493968,0.,-0.00423156,0.0035303
 5,0.,-0.00152613,-0.00039584,0.,-0.00325653,-0.00166130,0.,-0.00058108
 ,-0.00144277,0.,0.00082133,-0.00079691,0.,0.05468262,0.00263180,-0.012
 48905,0.,0.00339992,-0.34446495,0.,0.00376473,-0.01034412,0.,0.0010552
 1,0.00052234,0.,0.00004479,0.00062385,0.,-0.00227325,0.00055366,0.,-0.
 00014915,-0.00033785,0.,0.00105024,0.00072063,0.,-0.00935262,0.3655116
 4,0.,0.,0.00495783,0.,0.,-0.03423906,0.,0.,-0.00080332,0.,0.,0.0056316
 1,0.,0.,-0.00050538,0.,0.,0.00557900,0.,0.,-0.00001148,0.,0.,-0.002707
 52,0.,0.,0.02251338,-0.00011338,-0.00066916,0.,0.00131198,-0.00156813,
 0.,0.00339891,0.00280302,0.,-0.27996959,0.11887464,0.,-0.01807514,0.01
 453945,0.,-0.00164361,-0.00300351,0.,-0.00118462,0.00002497,0.,0.00004
 837,0.00000279,0.,0.00019692,-0.00012775,0.,0.29498865,-0.00132820,-0.
 00118762,0.,0.00078696,-0.00524887,0.,0.02531108,-0.01129815,0.,0.1242
 9311,-0.11912370,0.,-0.01610228,0.01151693,0.,-0.00298586,-0.00041047,
 0.,-0.00089829,0.00001564,0.,0.00014364,0.00012878,0.,0.00098680,-0.00
 020722,0.,-0.13083727,0.12528961,0.,0.,-0.00013574,0.,0.,0.00558576,0.
 ,0.,-0.00107288,0.,0.,-0.03468730,0.,0.,0.00490419,0.,0.,0.00724284,0.
 ,0.,-0.00010264,0.,0.,-0.00052724,0.,0.,-0.00019944,0.,0.,0.02319747,-
 0.00352334,0.00132274,0.,-0.00102275,0.00067438,0.,-0.00361282,-0.0043
 6247,0.,0.00349985,-0.02643307,0.,-0.05503669,0.00024404,0.,0.00169684
 ,0.02761258,0.,0.00042567,0.00095961,0.,-0.00057340,0.00151792,0.,0.00
 006336,-0.00004391,0.,0.00104152,0.00063031,0.,0.05704176,0.00217374,0
 .00039821,0.,0.00009522,0.00104844,0.,-0.00294213,-0.00063454,0.,0.002
 46342,-0.00924270,0.,0.00420413,-0.34772805,0.,-0.00311317,-0.01105745
 ,0.,-0.00082217,0.00115989,0.,0.00009157,-0.00022145,0.,0.00001056,-0.
 00008893,0.,-0.00003904,0.00052506,0.,-0.00212213,0.36584153,0.,0.,0.0
 0565494,0.,0.,-0.00122549,0.,0.,0.00673974,0.,0.,0.00452769,0.,0.,-0.0
 3653831,0.,0.,0.00292120,0.,0.,-0.00259125,0.,0.,0.00012088,0.,0.,-0.0
 0021562,0.,0.,-0.00420502,0.,0.,0.02481123\\-0.00028703,0.00026921,0.,
 -0.00000596,-0.00029904,0.,0.00013237,0.00018182,0.,0.00004104,-0.0000
 7511,0.,0.00000480,0.00012765,0.,0.00015884,-0.00007077,0.,-0.00009605
 ,0.00000641,0.,0.00014244,-0.00015549,0.,-0.00002179,0.00003228,0.,-0.
 00002093,-0.00000463,0.,-0.00004772,-0.00001233,0.\\\@


 A true friend is someone who is there for
 you when he'd rather be anywhere else.
                               -- Len Wein
 Job cpu time:       0 days  0 hours 38 minutes 20.5 seconds.
 Elapsed time:       0 days  0 hours  9 minutes 37.5 seconds.
 File lengths (MBytes):  RWF=    142 Int=      0 D2E=      0 Chk=     34 Scr=      1
 Normal termination of Gaussian 16 at Wed Dec 10 11:34:23 2025.
