 Entering Gaussian System, Link 0=g16
 Initial command:
 /share/software/user/restricted/gaussian/g16.B01/l1.exe "/home/users/jlapier/Chloroaromatics/Gau-18483.inp" -scrdir="/home/users/jlapier/Chloroaromatics/"
 Entering Link 1 = /share/software/user/restricted/gaussian/g16.B01/l1.exe PID=     18484.
  
 Copyright (c) 1988-2017, Gaussian, Inc.  All Rights Reserved.
  
 This is part of the Gaussian(R) 16 program.  It is based on
 the Gaussian(R) 09 system (copyright 2009, Gaussian, Inc.),
 the Gaussian(R) 03 system (copyright 2003, Gaussian, Inc.),
 the Gaussian(R) 98 system (copyright 1998, Gaussian, Inc.),
 the Gaussian(R) 94 system (copyright 1995, Gaussian, Inc.),
 the Gaussian 92(TM) system (copyright 1992, Gaussian, Inc.),
 the Gaussian 90(TM) system (copyright 1990, Gaussian, Inc.),
 the Gaussian 88(TM) system (copyright 1988, Gaussian, Inc.),
 the Gaussian 86(TM) system (copyright 1986, Carnegie Mellon
 University), and the Gaussian 82(TM) system (copyright 1983,
 Carnegie Mellon University). Gaussian is a federally registered
 trademark of Gaussian, Inc.
  
 This software contains proprietary and confidential information,
 including trade secrets, belonging to Gaussian, Inc.
  
 This software is provided under written license and may be
 used, copied, transmitted, or stored only in accord with that
 written license.
  
 The following legend is applicable only to US Government
 contracts under FAR:
  
                    RESTRICTED RIGHTS LEGEND
  
 Use, reproduction and disclosure by the US Government is
 subject to restrictions as set forth in subparagraphs (a)
 and (c) of the Commercial Computer Software - Restricted
 Rights clause in FAR 52.227-19.
  
 Gaussian, Inc.
 340 Quinnipiac St., Bldg. 40, Wallingford CT 06492
  
  
 ---------------------------------------------------------------
 Warning -- This program may not be used in any manner that
 competes with the business of Gaussian, Inc. or will provide
 assistance to any competitor of Gaussian, Inc.  The licensee
 of this program is prohibited from giving any competitor of
 Gaussian, Inc. access to this program.  By using this program,
 the user acknowledges that Gaussian, Inc. is engaged in the
 business of creating and licensing software in the field of
 computational chemistry and represents and warrants to the
 licensee that it is not a competitor of Gaussian, Inc. and that
 it will not use this program in any manner prohibited above.
 ---------------------------------------------------------------
  

 Cite this work as:
 Gaussian 16, Revision B.01,
 M. J. Frisch, G. W. Trucks, H. B. Schlegel, G. E. Scuseria, 
 M. A. Robb, J. R. Cheeseman, G. Scalmani, V. Barone, 
 G. A. Petersson, H. Nakatsuji, X. Li, M. Caricato, A. V. Marenich, 
 J. Bloino, B. G. Janesko, R. Gomperts, B. Mennucci, H. P. Hratchian, 
 J. V. Ortiz, A. F. Izmaylov, J. L. Sonnenberg, D. Williams-Young, 
 F. Ding, F. Lipparini, F. Egidi, J. Goings, B. Peng, A. Petrone, 
 T. Henderson, D. Ranasinghe, V. G. Zakrzewski, J. Gao, N. Rega, 
 G. Zheng, W. Liang, M. Hada, M. Ehara, K. Toyota, R. Fukuda, 
 J. Hasegawa, M. Ishida, T. Nakajima, Y. Honda, O. Kitao, H. Nakai, 
 T. Vreven, K. Throssell, J. A. Montgomery, Jr., J. E. Peralta, 
 F. Ogliaro, M. J. Bearpark, J. J. Heyd, E. N. Brothers, K. N. Kudin, 
 V. N. Staroverov, T. A. Keith, R. Kobayashi, J. Normand, 
 K. Raghavachari, A. P. Rendell, J. C. Burant, S. S. Iyengar, 
 J. Tomasi, M. Cossi, J. M. Millam, M. Klene, C. Adamo, R. Cammi, 
 J. W. Ochterski, R. L. Martin, K. Morokuma, O. Farkas, 
 J. B. Foresman, and D. J. Fox, Gaussian, Inc., Wallingford CT, 2016.
 
 ******************************************
 Gaussian 16:  ES64L-G16RevB.01 20-Dec-2017
                10-Dec-2025 
 ******************************************
 %mem=8GB
 %nprocshare=4
 Will use up to    4 processors via shared memory.
 %oldchk=geometry_chks/124-1_4-ClBzNeutralRadical.chk
 %chk=frequency_chks/124-1_4-ClBzNeutralRadical_Freq.chk
 Copying data from "geometry_chks/124-1_4-ClBzNeutralRadical.chk" to current chk file "frequency_chks/124-1_4-ClBzNeutralRadical_Freq.chk"
 IOpt=  2 FromEx=T IUOpen= 4 IOptOp= 5 NList=   0 IFRang= 0 IUIn= 4 IUOut= 2.
 -------------------------------------------------------
 # opt freq 6-311++g(d,p) guess=read geom=allcheck m062x
 -------------------------------------------------------
 1/18=20,19=15,26=3,29=7,38=1/1,3;
 2/9=110,12=2,40=1/2;
 3/5=4,6=6,7=1111,11=2,14=-4,25=1,30=1,71=1,74=-55,116=-2/1,2,3;
 4/5=1/1;
 5/5=2,38=6/2;
 6/7=2,8=2,9=2,10=2,28=1/1;
 7//1,2,3,16;
 1/18=20,19=15,26=3/3(2);
 2/9=110/2;
 99//99;
 2/9=110/2;
 3/5=4,6=6,7=1111,11=2,14=-2,25=1,30=1,71=1,74=-55/1,2,3;
 4/5=5,16=3,69=1/1;
 5/5=2,38=5/2;
 7//1,2,3,16;
 1/18=20,19=15,26=3/3(-5);
 2/9=110/2;
 6/7=2,8=2,9=2,10=2,19=2,28=1/1;
 99/9=1/99;
 Structure from the checkpoint file:  "frequency_chks/124-1_4-ClBzNeutralRadical_Freq.chk"
 -------------------------------
 Neutral Radical (removed 2) 1_4
 -------------------------------
 Charge =  0 Multiplicity = 2
 Redundant internal coordinates found in file.  (old form).
 C,0,-3.063394177,0.1234710393,0.
 C,0,-1.9597625198,0.9325164069,0.
 C,0,-0.7249129913,0.2439499172,0.
 C,0,-0.6983299158,-1.1640152836,0.
 C,0,-1.8805129635,-1.9134290693,0.
 C,0,-3.1294551803,-1.2512621192,0.
 Cl,0,-4.5859378084,-2.0934952511,0.
 H,0,-2.0255047014,2.0278920372,0.
 Cl,0,0.7239762843,1.1176404273,0.
 H,0,0.2696968014,-1.688896488,0.
 H,0,-1.8386328283,-3.0120716166,0.
 Recover connectivity data from disk.

 GradGradGradGradGradGradGradGradGradGradGradGradGradGradGradGradGradGrad
 Berny optimization.
 Initialization pass.
                           ----------------------------
                           !    Initial Parameters    !
                           ! (Angstroms and Degrees)  !
 --------------------------                            --------------------------
 ! Name  Definition              Value          Derivative Info.                !
 --------------------------------------------------------------------------------
 ! R1    R(1,2)                  1.3684         estimate D2E/DX2                !
 ! R2    R(1,6)                  1.3763         estimate D2E/DX2                !
 ! R3    R(2,3)                  1.4139         estimate D2E/DX2                !
 ! R4    R(2,8)                  1.0973         estimate D2E/DX2                !
 ! R5    R(3,4)                  1.4082         estimate D2E/DX2                !
 ! R6    R(3,9)                  1.6919         estimate D2E/DX2                !
 ! R7    R(4,5)                  1.3997         estimate D2E/DX2                !
 ! R8    R(4,10)                 1.1012         estimate D2E/DX2                !
 ! R9    R(5,6)                  1.4136         estimate D2E/DX2                !
 ! R10   R(5,11)                 1.0994         estimate D2E/DX2                !
 ! R11   R(6,7)                  1.6825         estimate D2E/DX2                !
 ! A1    A(2,1,6)              128.9954         estimate D2E/DX2                !
 ! A2    A(1,2,3)              114.6112         estimate D2E/DX2                !
 ! A3    A(1,2,8)              122.8096         estimate D2E/DX2                !
 ! A4    A(3,2,8)              122.5792         estimate D2E/DX2                !
 ! A5    A(2,3,4)              120.2262         estimate D2E/DX2                !
 ! A6    A(2,3,9)              119.7652         estimate D2E/DX2                !
 ! A7    A(4,3,9)              120.0086         estimate D2E/DX2                !
 ! A8    A(3,4,5)              121.2899         estimate D2E/DX2                !
 ! A9    A(3,4,10)             119.549          estimate D2E/DX2                !
 ! A10   A(5,4,10)             119.1611         estimate D2E/DX2                !
 ! A11   A(4,5,6)              119.6967         estimate D2E/DX2                !
 ! A12   A(4,5,11)             120.1885         estimate D2E/DX2                !
 ! A13   A(6,5,11)             120.1148         estimate D2E/DX2                !
 ! A14   A(1,6,5)              115.1806         estimate D2E/DX2                !
 ! A15   A(1,6,7)              122.7905         estimate D2E/DX2                !
 ! A16   A(5,6,7)              122.029          estimate D2E/DX2                !
 ! D1    D(6,1,2,3)              0.0            estimate D2E/DX2                !
 ! D2    D(6,1,2,8)            180.0            estimate D2E/DX2                !
 ! D3    D(2,1,6,5)              0.0            estimate D2E/DX2                !
 ! D4    D(2,1,6,7)            180.0            estimate D2E/DX2                !
 ! D5    D(1,2,3,4)              0.0            estimate D2E/DX2                !
 ! D6    D(1,2,3,9)            180.0            estimate D2E/DX2                !
 ! D7    D(8,2,3,4)            180.0            estimate D2E/DX2                !
 ! D8    D(8,2,3,9)              0.0            estimate D2E/DX2                !
 ! D9    D(2,3,4,5)              0.0            estimate D2E/DX2                !
 ! D10   D(2,3,4,10)           180.0            estimate D2E/DX2                !
 ! D11   D(9,3,4,5)            180.0            estimate D2E/DX2                !
 ! D12   D(9,3,4,10)             0.0            estimate D2E/DX2                !
 ! D13   D(3,4,5,6)              0.0            estimate D2E/DX2                !
 ! D14   D(3,4,5,11)           180.0            estimate D2E/DX2                !
 ! D15   D(10,4,5,6)           180.0            estimate D2E/DX2                !
 ! D16   D(10,4,5,11)            0.0            estimate D2E/DX2                !
 ! D17   D(4,5,6,1)              0.0            estimate D2E/DX2                !
 ! D18   D(4,5,6,7)            180.0            estimate D2E/DX2                !
 ! D19   D(11,5,6,1)           180.0            estimate D2E/DX2                !
 ! D20   D(11,5,6,7)             0.0            estimate D2E/DX2                !
 --------------------------------------------------------------------------------
 Trust Radius=3.00D-01 FncErr=1.00D-07 GrdErr=1.00D-06 EigMax=2.50D+02 EigMin=1.00D-04
 Number of steps in this run=     57 maximum allowed number of steps=    100.
 GradGradGradGradGradGradGradGradGradGradGradGradGradGradGradGradGradGrad

                          Input orientation:                          
 ---------------------------------------------------------------------
 Center     Atomic      Atomic             Coordinates (Angstroms)
 Number     Number       Type             X           Y           Z
 ---------------------------------------------------------------------
      1          6           0       -3.063394    0.123471    0.000000
      2          6           0       -1.959763    0.932516    0.000000
      3          6           0       -0.724913    0.243950    0.000000
      4          6           0       -0.698330   -1.164015    0.000000
      5          6           0       -1.880513   -1.913429    0.000000
      6          6           0       -3.129455   -1.251262    0.000000
      7         17           0       -4.585938   -2.093495    0.000000
      8          1           0       -2.025505    2.027892    0.000000
      9         17           0        0.723976    1.117640    0.000000
     10          1           0        0.269697   -1.688896    0.000000
     11          1           0       -1.838633   -3.012072    0.000000
 ---------------------------------------------------------------------
                    Distance matrix (angstroms):
                    1          2          3          4          5
     1  C    0.000000
     2  C    1.368414   0.000000
     3  C    2.341583   1.413852   0.000000
     4  C    2.692796   2.446765   1.408216   0.000000
     5  C    2.355455   2.847049   2.447385   1.399706   0.000000
     6  C    1.376319   2.477311   2.831516   2.432690   1.413620
     7  Cl   2.689438   4.006687   4.513442   3.997178   2.711411
     8  H    2.168878   1.097347   2.207711   3.456829   3.943987
     9  Cl   3.915680   2.690116   1.691926   2.688663   3.996342
    10  H    3.793965   3.441263   2.173740   1.101170   2.161901
    11  H    3.366254   3.946447   3.441228   2.171544   1.099440
                    6          7          8          9         10
     6  C    0.000000
     7  Cl   1.682468   0.000000
     8  H    3.459994   4.851974   0.000000
     9  Cl   4.523343   6.205367   2.896240   0.000000
    10  H    3.427208   4.872462   4.368348   2.843065   0.000000
    11  H    2.183271   2.896803   5.043427   4.860194   2.489146
                   11
    11  H    0.000000
 Stoichiometry    C6H3Cl2(2)
 Framework group  CS[SG(C6H3Cl2)]
 Deg. of freedom    19
 Full point group                 CS      NOp   2
 Largest Abelian subgroup         CS      NOp   2
 Largest concise Abelian subgroup C1      NOp   1
                         Standard orientation:                         
 ---------------------------------------------------------------------
 Center     Atomic      Atomic             Coordinates (Angstroms)
 Number     Number       Type             X           Y           Z
 ---------------------------------------------------------------------
      1          6           0        0.000000   -1.334614    0.000000
      2          6           0       -1.237341   -0.750197    0.000000
      3          6           0       -1.220785    0.663558    0.000000
      4          6           0        0.004195    1.358179    0.000000
      5          6           0        1.226567    0.676282    0.000000
      6          6           0        1.239936   -0.737275    0.000000
      7         17           0        2.674674   -1.616039    0.000000
      8          1           0       -2.168874   -1.330211    0.000000
      9         17           0       -2.679555    1.520650    0.000000
     10          1           0        0.004074    2.459349    0.000000
     11          1           0        2.172348    1.236878    0.000000
 ---------------------------------------------------------------------
 Rotational constants (GHZ):           6.0380473           0.6748102           0.6069749
 Standard basis: 6-311++G(d,p) (5D, 7F)
 There are   166 symmetry adapted cartesian basis functions of A'  symmetry.
 There are    55 symmetry adapted cartesian basis functions of A"  symmetry.
 There are   158 symmetry adapted basis functions of A'  symmetry.
 There are    55 symmetry adapted basis functions of A"  symmetry.
   213 basis functions,   349 primitive gaussians,   221 cartesian basis functions
    37 alpha electrons       36 beta electrons
       nuclear repulsion energy       437.3388207152 Hartrees.
 NAtoms=   11 NActive=   11 NUniq=   11 SFac= 1.00D+00 NAtFMM=   60 NAOKFM=F Big=F
 Integral buffers will be    131072 words long.
 Raffenetti 2 integral format.
 Two-electron integral symmetry is turned on.
 One-electron integrals computed using PRISM.
 NBasis=   213 RedAO= T EigKep=  1.54D-06  NBF=   158    55
 NBsUse=   213 1.00D-06 EigRej= -1.00D+00 NBFU=   158    55
 Initial guess from the checkpoint file:  "frequency_chks/124-1_4-ClBzNeutralRadical_Freq.chk"
 B after Tr=     0.000000   -0.000000    0.000000
         Rot=    1.000000   -0.000000   -0.000000   -0.000000 Ang=   0.00 deg.
 Initial guess orbital symmetries:
 Alpha Orbitals:
       Occupied  (A') (A') (A') (A') (A') (A') (A') (A') (A') (A')
                 (A') (A") (A') (A") (A') (A') (A') (A") (A') (A")
                 (A") (A") (A") (A') (A') (A") (A') (A') (A') (A')
                 (A') (A') (A') (A') (A') (A') (A')
       Virtual   (A') (A') (A') (A') (A') (A') (A') (A') (A') (A')
                 (A') (A') (A') (A') (A') (A') (A') (A') (A') (A')
                 (A') (A') (A') (A') (A') (A') (A') (A') (A') (A')
                 (A') (A') (A') (A') (A') (A') (A') (A') (A') (A')
                 (A') (A') (A') (A') (A') (A') (A') (A') (A') (A')
                 (A') (A') (A') (A') (A') (A') (A') (A') (A') (A')
                 (A') (A') (A') (A') (A') (A') (A') (A') (A') (A')
                 (A') (A') (A') (A') (A') (A') (A') (A') (A') (A')
                 (A') (A') (A') (A') (A') (A') (A') (A') (A') (A')
                 (A') (A') (A') (A') (A') (A') (A') (A') (A') (A')
                 (A') (A') (A') (A') (A') (A') (A') (A') (A') (A')
                 (A') (A') (A') (A') (A') (A') (A') (A') (A') (A')
                 (A') (A') (A') (A') (A') (A') (A') (A') (A') (A")
                 (A") (A") (A") (A") (A") (A") (A") (A") (A") (A")
                 (A") (A") (A") (A") (A") (A") (A") (A") (A") (A")
                 (A") (A") (A") (A") (A") (A") (A") (A") (A") (A")
                 (A") (A") (A") (A") (A") (A") (A") (A") (A") (A")
                 (A") (A") (A") (A") (A") (A")
 Beta  Orbitals:
       Occupied  (A') (A') (A') (A') (A') (A') (A') (A') (A') (A')
                 (A') (A") (A') (A") (A') (A') (A") (A') (A") (A")
                 (A') (A") (A") (A') (A') (A") (A') (A') (A') (A')
                 (A') (A') (A') (A') (A') (A')
       Virtual   (A') (A') (A') (A') (A') (A') (A') (A') (A') (A')
                 (A') (A') (A') (A') (A') (A') (A') (A') (A') (A')
                 (A') (A') (A') (A') (A') (A') (A') (A') (A') (A')
                 (A') (A') (A') (A') (A') (A') (A') (A') (A') (A')
                 (A') (A') (A') (A') (A') (A') (A') (A') (A') (A')
                 (A') (A') (A') (A') (A') (A') (A') (A') (A') (A')
                 (A') (A') (A') (A') (A') (A') (A') (A') (A') (A')
                 (A') (A') (A') (A') (A') (A') (A') (A') (A') (A')
                 (A') (A') (A') (A') (A') (A') (A') (A') (A') (A')
                 (A') (A') (A') (A') (A') (A') (A') (A') (A') (A')
                 (A') (A') (A') (A') (A') (A') (A') (A') (A') (A')
                 (A') (A') (A') (A') (A') (A') (A') (A') (A') (A')
                 (A') (A') (A') (A') (A') (A') (A') (A') (A') (A')
                 (A") (A") (A") (A") (A") (A") (A") (A") (A") (A")
                 (A") (A") (A") (A") (A") (A") (A") (A") (A") (A")
                 (A") (A") (A") (A") (A") (A") (A") (A") (A") (A")
                 (A") (A") (A") (A") (A") (A") (A") (A") (A") (A")
                 (A") (A") (A") (A") (A") (A") (A")
 Initial guess <Sx>= 0.0000 <Sy>= 0.0000 <Sz>= 0.5000 <S**2>= 0.7500 S= 0.5000
 Keep R1 and R2 ints in memory in symmetry-blocked form, NReq=411615841.
 Requested convergence on RMS density matrix=1.00D-08 within 128 cycles.
 Requested convergence on MAX density matrix=1.00D-06.
 Requested convergence on             energy=1.00D-06.
 No special actions if energy rises.
 SCF Done:  E(UM062X) =  -1150.70627139     A.U. after   26 cycles
            NFock= 26  Conv=0.54D-08     -V/T= 2.0025
 <Sx>= 0.0000 <Sy>= 0.0000 <Sz>= 0.5000 <S**2>= 0.7627 S= 0.5063
 <L.S>=  0.00000000000    
 Annihilation of the first spin contaminant:
 S**2 before annihilation     0.7627,   after     0.7501

 **********************************************************************

            Population analysis using the SCF Density.

 **********************************************************************

 Orbital symmetries:
 Alpha Orbitals:
       Occupied  (A') (A') (A') (A') (A') (A') (A') (A') (A') (A')
                 (A') (A') (A") (A') (A") (A') (A') (A') (A') (A')
                 (A') (A') (A') (A') (A') (A') (A') (A") (A') (A')
                 (A") (A') (A") (A') (A") (A') (A")
       Virtual   (A") (A") (A') (A') (A') (A') (A') (A") (A') (A')
                 (A") (A') (A") (A') (A') (A") (A') (A') (A') (A')
                 (A") (A") (A') (A') (A") (A') (A") (A') (A') (A')
                 (A") (A') (A') (A') (A') (A') (A') (A') (A') (A')
                 (A') (A') (A') (A') (A') (A') (A') (A') (A') (A')
                 (A") (A") (A') (A') (A') (A") (A') (A') (A") (A')
                 (A") (A') (A") (A") (A') (A') (A") (A') (A') (A')
                 (A') (A') (A") (A') (A') (A') (A') (A") (A') (A")
                 (A') (A") (A') (A') (A') (A') (A') (A") (A') (A')
                 (A") (A") (A') (A') (A") (A') (A') (A') (A") (A")
                 (A') (A') (A') (A') (A") (A') (A") (A') (A") (A')
                 (A') (A') (A") (A") (A') (A') (A") (A') (A") (A')
                 (A') (A') (A") (A') (A') (A") (A") (A") (A') (A')
                 (A') (A') (A') (A') (A') (A') (A") (A') (A') (A')
                 (A') (A") (A') (A") (A") (A") (A') (A") (A') (A')
                 (A') (A') (A') (A') (A') (A') (A') (A') (A') (A')
                 (A') (A') (A') (A') (A') (A') (A') (A') (A") (A")
                 (A') (A') (A') (A') (A') (A')
 Beta  Orbitals:
       Occupied  (A') (A') (A') (A') (A') (A') (A') (A') (A') (A')
                 (A') (A') (A") (A') (A") (A') (A') (A') (A') (A')
                 (A') (A') (A') (A') (A') (A') (A') (A") (A') (A')
                 (A") (A') (A") (A') (A") (A")
       Virtual   (A') (A") (A') (A") (A') (A') (A') (A') (A") (A')
                 (A') (A") (A') (A") (A') (A') (A") (A') (A') (A')
                 (A") (A') (A") (A') (A') (A") (A') (A") (A') (A')
                 (A') (A") (A') (A') (A') (A') (A') (A') (A') (A')
                 (A') (A') (A') (A') (A') (A') (A') (A') (A') (A')
                 (A') (A") (A") (A') (A') (A') (A") (A') (A') (A')
                 (A") (A') (A") (A") (A") (A') (A") (A') (A') (A')
                 (A') (A') (A') (A") (A') (A') (A') (A') (A") (A')
                 (A") (A') (A") (A') (A') (A') (A') (A') (A") (A')
                 (A') (A") (A") (A') (A') (A") (A') (A') (A') (A")
                 (A") (A') (A') (A') (A') (A") (A') (A") (A') (A")
                 (A') (A') (A') (A") (A") (A') (A') (A") (A') (A")
                 (A') (A') (A') (A") (A') (A') (A") (A") (A") (A')
                 (A') (A') (A') (A') (A') (A') (A') (A") (A') (A')
                 (A') (A') (A") (A') (A") (A") (A") (A') (A") (A')
                 (A') (A') (A') (A') (A') (A') (A') (A') (A') (A')
                 (A') (A') (A') (A') (A') (A') (A') (A') (A') (A")
                 (A") (A') (A') (A') (A') (A') (A')
 The electronic state is 2-A'.
 Alpha  occ. eigenvalues -- -102.69253-102.69146 -10.63183 -10.62783 -10.59777
 Alpha  occ. eigenvalues --  -10.58525 -10.58444 -10.57882  -9.83596  -9.83499
 Alpha  occ. eigenvalues --   -7.56148  -7.56022  -7.55414  -7.55413  -7.55339
 Alpha  occ. eigenvalues --   -7.55322  -1.03481  -1.00616  -0.94229  -0.87641
 Alpha  occ. eigenvalues --   -0.82632  -0.72508  -0.68871  -0.60609  -0.57796
 Alpha  occ. eigenvalues --   -0.55117  -0.52806  -0.50459  -0.48935  -0.46634
 Alpha  occ. eigenvalues --   -0.45692  -0.40210  -0.39597  -0.39234  -0.34445
 Alpha  occ. eigenvalues --   -0.32932  -0.30296
 Alpha virt. eigenvalues --   -0.01615  -0.00679  -0.00258   0.00967   0.02004
 Alpha virt. eigenvalues --    0.03503   0.04371   0.05792   0.05982   0.06875
 Alpha virt. eigenvalues --    0.07143   0.07992   0.08793   0.08912   0.09225
 Alpha virt. eigenvalues --    0.11378   0.11841   0.12024   0.12814   0.13166
 Alpha virt. eigenvalues --    0.13179   0.14198   0.14380   0.14740   0.15064
 Alpha virt. eigenvalues --    0.15335   0.16587   0.17222   0.17916   0.18677
 Alpha virt. eigenvalues --    0.19607   0.20110   0.20691   0.22800   0.23583
 Alpha virt. eigenvalues --    0.24383   0.24917   0.25410   0.26392   0.27763
 Alpha virt. eigenvalues --    0.28671   0.29376   0.30420   0.32073   0.33181
 Alpha virt. eigenvalues --    0.35080   0.36556   0.44823   0.46219   0.47662
 Alpha virt. eigenvalues --    0.47709   0.47910   0.50503   0.51242   0.53049
 Alpha virt. eigenvalues --    0.55189   0.56332   0.57151   0.58180   0.59651
 Alpha virt. eigenvalues --    0.61910   0.62137   0.62831   0.63160   0.65029
 Alpha virt. eigenvalues --    0.68472   0.69485   0.70305   0.72759   0.76118
 Alpha virt. eigenvalues --    0.77600   0.80130   0.83320   0.84318   0.87168
 Alpha virt. eigenvalues --    0.88738   0.89066   0.89537   0.90821   0.90954
 Alpha virt. eigenvalues --    0.91283   0.92091   0.92774   0.95702   0.97484
 Alpha virt. eigenvalues --    0.98345   0.99977   1.02963   1.04403   1.07533
 Alpha virt. eigenvalues --    1.08159   1.12101   1.15326   1.18977   1.22587
 Alpha virt. eigenvalues --    1.26058   1.27275   1.27660   1.32982   1.36070
 Alpha virt. eigenvalues --    1.44095   1.50460   1.53026   1.53799   1.58053
 Alpha virt. eigenvalues --    1.61775   1.63239   1.71141   1.71523   1.71949
 Alpha virt. eigenvalues --    1.73600   1.81021   1.87760   1.89415   1.91037
 Alpha virt. eigenvalues --    1.92527   1.95314   1.97487   2.03118   2.04336
 Alpha virt. eigenvalues --    2.07307   2.11406   2.16297   2.25953   2.26941
 Alpha virt. eigenvalues --    2.29652   2.32013   2.32335   2.39742   2.43649
 Alpha virt. eigenvalues --    2.45571   2.50786   2.52845   2.57061   2.60244
 Alpha virt. eigenvalues --    2.65673   2.68191   2.70345   2.72476   2.72959
 Alpha virt. eigenvalues --    2.77326   2.80096   2.82409   2.83294   2.91050
 Alpha virt. eigenvalues --    2.92389   3.02109   3.09949   3.15102   3.16603
 Alpha virt. eigenvalues --    3.29457   3.33811   3.44267   3.52528   3.61965
 Alpha virt. eigenvalues --    3.80786   3.92886   4.06930   4.13514   4.76746
 Alpha virt. eigenvalues --    9.96290   9.99450  23.48101  23.88336  23.96791
 Alpha virt. eigenvalues --   24.03326  24.12182  24.20614  25.91570  25.93818
 Alpha virt. eigenvalues --   26.17318  26.28168  26.67342  26.77429 216.06248
 Alpha virt. eigenvalues --  216.09776
  Beta  occ. eigenvalues -- -102.69225-102.69130 -10.63084 -10.62816 -10.58808
  Beta  occ. eigenvalues --  -10.58470 -10.58463 -10.57911  -9.83584  -9.83493
  Beta  occ. eigenvalues --   -7.56078  -7.55993  -7.55421  -7.55392  -7.55326
  Beta  occ. eigenvalues --   -7.55312  -1.02946  -1.00411  -0.93673  -0.86631
  Beta  occ. eigenvalues --   -0.81962  -0.71680  -0.67523  -0.59925  -0.57102
  Beta  occ. eigenvalues --   -0.54382  -0.52449  -0.49964  -0.47908  -0.46187
  Beta  occ. eigenvalues --   -0.45621  -0.39628  -0.39273  -0.39054  -0.33550
  Beta  occ. eigenvalues --   -0.29988
  Beta virt. eigenvalues --   -0.07583  -0.01654  -0.00256   0.00418   0.01162
  Beta virt. eigenvalues --    0.02097   0.03414   0.04608   0.05864   0.05991
  Beta virt. eigenvalues --    0.06607   0.07103   0.08204   0.08546   0.08987
  Beta virt. eigenvalues --    0.09179   0.11423   0.11781   0.12157   0.12638
  Beta virt. eigenvalues --    0.13105   0.13332   0.14273   0.14412   0.14643
  Beta virt. eigenvalues --    0.14781   0.15607   0.16941   0.17280   0.17426
  Beta virt. eigenvalues --    0.18832   0.20106   0.20124   0.20680   0.22925
  Beta virt. eigenvalues --    0.23724   0.24485   0.24844   0.25299   0.25599
  Beta virt. eigenvalues --    0.28216   0.28481   0.29430   0.30171   0.32354
  Beta virt. eigenvalues --    0.33775   0.35276   0.37108   0.44599   0.46457
  Beta virt. eigenvalues --    0.47359   0.47717   0.47991   0.50697   0.51469
  Beta virt. eigenvalues --    0.53277   0.55366   0.55796   0.57292   0.57665
  Beta virt. eigenvalues --    0.58337   0.60827   0.61976   0.62864   0.63235
  Beta virt. eigenvalues --    0.64939   0.69319   0.69828   0.70777   0.72726
  Beta virt. eigenvalues --    0.75979   0.76953   0.80289   0.83557   0.84310
  Beta virt. eigenvalues --    0.86827   0.88808   0.89392   0.89624   0.90714
  Beta virt. eigenvalues --    0.91017   0.91358   0.92121   0.92328   0.96212
  Beta virt. eigenvalues --    0.96938   0.98418   0.99879   1.03433   1.04268
  Beta virt. eigenvalues --    1.07404   1.08443   1.12490   1.16178   1.18599
  Beta virt. eigenvalues --    1.24275   1.25445   1.27047   1.27779   1.33636
  Beta virt. eigenvalues --    1.36668   1.45278   1.51025   1.53573   1.54913
  Beta virt. eigenvalues --    1.58342   1.62375   1.63315   1.71468   1.71944
  Beta virt. eigenvalues --    1.72219   1.74756   1.81375   1.87991   1.89494
  Beta virt. eigenvalues --    1.91380   1.92991   1.96003   1.98044   2.03432
  Beta virt. eigenvalues --    2.04660   2.07369   2.11956   2.16381   2.26492
  Beta virt. eigenvalues --    2.27272   2.29680   2.32076   2.32734   2.40128
  Beta virt. eigenvalues --    2.43827   2.45984   2.51265   2.53015   2.57192
  Beta virt. eigenvalues --    2.60529   2.66408   2.68310   2.70442   2.72541
  Beta virt. eigenvalues --    2.72980   2.77289   2.80528   2.83266   2.83326
  Beta virt. eigenvalues --    2.91166   2.92195   3.04834   3.10018   3.15388
  Beta virt. eigenvalues --    3.17187   3.29543   3.34231   3.44397   3.53090
  Beta virt. eigenvalues --    3.62480   3.80807   3.93266   4.06999   4.13812
  Beta virt. eigenvalues --    4.76943   9.96297   9.99455  23.48254  23.88446
  Beta virt. eigenvalues --   23.96885  24.03413  24.12227  24.21230  25.91591
  Beta virt. eigenvalues --   25.93838  26.17356  26.28202  26.67481  26.77540
  Beta virt. eigenvalues --  216.06281 216.09811
          Condensed to atoms (all electrons):
               1          2          3          4          5          6
     1  C   13.435138  -0.037552  -0.996753  -1.671036  -3.851109  -0.499973
     2  C   -0.037552  15.976601  -1.648053  -2.744208  -5.739200   0.695233
     3  C   -0.996753  -1.648053  15.512740  -4.896662   2.523446  -3.736701
     4  C   -1.671036  -2.744208  -4.896662  17.073288  -1.827260  -0.126353
     5  C   -3.851109  -5.739200   2.523446  -1.827260  18.014144  -3.901681
     6  C   -0.499973   0.695233  -3.736701  -0.126353  -3.901681  14.941219
     7  Cl  -0.584194   0.095535   0.074926   0.072274   0.683961  -1.207141
     8  H    0.078261   0.455874  -0.060683  -0.061113  -0.029094  -0.061242
     9  Cl   0.173690  -0.065950  -1.225702   0.274114   0.115727   0.007971
    10  H    0.068772  -0.090463  -0.258004   0.574763  -0.054619   0.062418
    11  H   -0.108216  -0.057322   0.111297  -0.058551   0.591907  -0.199628
               7          8          9         10         11
     1  C   -0.584194   0.078261   0.173690   0.068772  -0.108216
     2  C    0.095535   0.455874  -0.065950  -0.090463  -0.057322
     3  C    0.074926  -0.060683  -1.225702  -0.258004   0.111297
     4  C    0.072274  -0.061113   0.274114   0.574763  -0.058551
     5  C    0.683961  -0.029094   0.115727  -0.054619   0.591907
     6  C   -1.207141  -0.061242   0.007971   0.062418  -0.199628
     7  Cl  17.476242  -0.002463  -0.021768  -0.015981   0.048832
     8  H   -0.002463   0.473221   0.003115  -0.001600   0.000666
     9  Cl  -0.021768   0.003115  17.385890   0.031981  -0.013212
    10  H   -0.015981  -0.001600   0.031981   0.477018  -0.015850
    11  H    0.048832   0.000666  -0.013212  -0.015850   0.483646
          Atomic-Atomic Spin Densities.
               1          2          3          4          5          6
     1  C    2.253208  -1.334820   0.427804  -0.401226   0.786091  -1.086347
     2  C   -1.334820   0.967366  -0.597133   0.212730  -0.352699   1.135998
     3  C    0.427804  -0.597133   0.357254  -0.068803   0.246781  -0.284226
     4  C   -0.401226   0.212730  -0.068803   0.104353  -0.299570   0.463777
     5  C    0.786091  -0.352699   0.246781  -0.299570   0.392806  -0.764578
     6  C   -1.086347   1.135998  -0.284226   0.463777  -0.764578   0.753423
     7  Cl  -0.013987  -0.048344   0.013605  -0.019950   0.076619  -0.024189
     8  H    0.027933   0.009375  -0.019183  -0.014168   0.002612  -0.015436
     9  Cl  -0.101297   0.136609  -0.088565   0.023329  -0.058583   0.062625
    10  H   -0.015119   0.003648  -0.000712   0.013584  -0.008823   0.008976
    11  H    0.062598  -0.016638   0.004661  -0.039434   0.016782  -0.035964
               7          8          9         10         11
     1  C   -0.013987   0.027933  -0.101297  -0.015119   0.062598
     2  C   -0.048344   0.009375   0.136609   0.003648  -0.016638
     3  C    0.013605  -0.019183  -0.088565  -0.000712   0.004661
     4  C   -0.019950  -0.014168   0.023329   0.013584  -0.039434
     5  C    0.076619   0.002612  -0.058583  -0.008823   0.016782
     6  C   -0.024189  -0.015436   0.062625   0.008976  -0.035964
     7  Cl   0.025130  -0.000675  -0.000503  -0.000211  -0.000547
     8  H   -0.000675   0.036870  -0.000062  -0.000548   0.000309
     9  Cl  -0.000503  -0.000062   0.042569   0.000792  -0.002067
    10  H   -0.000211  -0.000548   0.000792   0.002189  -0.001868
    11  H   -0.000547   0.000309  -0.002067  -0.001868   0.022912
 Mulliken charges and spin densities:
               1          2
     1  C   -0.007028   0.604838
     2  C   -0.840495   0.116092
     3  C    0.600149  -0.008519
     4  C   -0.609257  -0.025379
     5  C   -0.526222   0.037437
     6  C    0.025877   0.214058
     7  Cl   0.379776   0.006948
     8  H    0.205057   0.027027
     9  Cl   0.334145   0.014847
    10  H    0.221564   0.001907
    11  H    0.216433   0.010743
 Sum of Mulliken charges =  -0.00000   1.00000
 Mulliken charges and spin densities with hydrogens summed into heavy atoms:
               1          2
     1  C   -0.007028   0.604838
     2  C   -0.635438   0.143119
     3  C    0.600149  -0.008519
     4  C   -0.387693  -0.023472
     5  C   -0.309790   0.048181
     6  C    0.025877   0.214058
     7  Cl   0.379776   0.006948
     9  Cl   0.334145   0.014847
 Electronic spatial extent (au):  <R**2>=           1620.7581
 Charge=             -0.0000 electrons
 Dipole moment (field-independent basis, Debye):
    X=              0.0479    Y=              0.7943    Z=              0.0000  Tot=              0.7957
 Quadrupole moment (field-independent basis, Debye-Ang):
   XX=            -59.4635   YY=            -58.1530   ZZ=            -62.7216
   XY=              4.8326   XZ=              0.0000   YZ=              0.0000
 Traceless Quadrupole moment (field-independent basis, Debye-Ang):
   XX=              0.6491   YY=              1.9597   ZZ=             -2.6089
   XY=              4.8326   XZ=              0.0000   YZ=              0.0000
 Octapole moment (field-independent basis, Debye-Ang**2):
  XXX=              0.7738  YYY=             10.1988  ZZZ=              0.0000  XYY=              0.1771
  XXY=             -1.4462  XXZ=              0.0000  XZZ=              0.0526  YZZ=             -0.0155
  YYZ=              0.0000  XYZ=              0.0000
 Hexadecapole moment (field-independent basis, Debye-Ang**3):
 XXXX=          -1349.8025 YYYY=           -651.5869 ZZZZ=            -73.0868 XXXY=            305.9646
 XXXZ=              0.0000 YYYX=            311.7581 YYYZ=              0.0000 ZZZX=              0.0000
 ZZZY=              0.0000 XXYY=           -322.5289 XXZZ=           -251.3334 YYZZ=           -128.3037
 XXYZ=              0.0000 YYXZ=              0.0000 ZZXY=            103.6367
 N-N= 4.373388207152D+02 E-N=-3.596553841330D+03  KE= 1.147827621631D+03
 Symmetry A'   KE= 1.049511973454D+03
 Symmetry A"   KE= 9.831564817671D+01
 Symmetry A'   SP= 1.000000000000D+00
 Symmetry A"   SP=-2.611944211603D-14
                          Isotropic Fermi Contact Couplings
        Atom                 a.u.       MegaHertz       Gauss      10(-4) cm-1
     1  C(13)              0.42588     478.76840     170.83647     159.69995
     2  C(13)              0.00565       6.34870       2.26537       2.11770
     3  C(13)              0.06423      72.20494      25.76452      24.08497
     4  C(13)             -0.00718      -8.07049      -2.87975      -2.69203
     5  C(13)              0.03679      41.35612      14.75689      13.79492
     6  C(13)             -0.01198     -13.46672      -4.80526      -4.49201
     7  Cl(35)             0.02083       9.13299       3.25888       3.04644
     8  H(1)               0.01296      57.92325      20.66846      19.32112
     9  Cl(35)             0.00206       0.90127       0.32160       0.30063
    10  H(1)               0.00055       2.47065       0.88159       0.82412
    11  H(1)               0.00480      21.45438       7.65546       7.15641
 --------------------------------------------------------
       Center         ----  Spin Dipole Couplings  ----
                      3XX-RR        3YY-RR        3ZZ-RR
 --------------------------------------------------------
     1   Atom       -0.574953      0.973142     -0.398189
     2   Atom        0.062473      0.034945     -0.097419
     3   Atom       -0.035903      0.040088     -0.004184
     4   Atom        0.019992      0.033173     -0.053166
     5   Atom       -0.030954      0.035350     -0.004396
     6   Atom        0.093115      0.013111     -0.106226
     7   Atom        0.185203     -0.054528     -0.130675
     8   Atom        0.020923     -0.009156     -0.011767
     9   Atom       -0.020595      0.039688     -0.019093
    10   Atom        0.001192      0.001428     -0.002620
    11   Atom        0.003236      0.001502     -0.004737
 --------------------------------------------------------
                        XY            XZ            YZ
 --------------------------------------------------------
     1   Atom        0.005058      0.000000      0.000000
     2   Atom       -0.049593      0.000000      0.000000
     3   Atom        0.008220      0.000000      0.000000
     4   Atom       -0.000401      0.000000      0.000000
     5   Atom        0.013948      0.000000      0.000000
     6   Atom        0.064321      0.000000      0.000000
     7   Atom       -0.038536      0.000000      0.000000
     8   Atom       -0.006099      0.000000      0.000000
     9   Atom       -0.058492      0.000000      0.000000
    10   Atom       -0.000121      0.000000      0.000000
    11   Atom        0.006562      0.000000      0.000000
 --------------------------------------------------------


 ---------------------------------------------------------------------------------
              Anisotropic Spin Dipole Couplings in Principal Axis System
 ---------------------------------------------------------------------------------

       Atom             a.u.   MegaHertz   Gauss  10(-4) cm-1        Axes

              Baa    -0.5750   -77.155   -27.531   -25.736  1.0000 -0.0033 -0.0000
     1 C(13)  Bbb    -0.3982   -53.433   -19.066   -17.823  0.0000  0.0000  1.0000
              Bcc     0.9732   130.589    46.597    43.560  0.0033  1.0000  0.0000
 
              Baa    -0.0974   -13.073    -4.665    -4.361  0.0000  0.0000  1.0000
     2 C(13)  Bbb    -0.0028    -0.370    -0.132    -0.123  0.6052  0.7961  0.0000
              Bcc     0.1002    13.443     4.797     4.484  0.7961 -0.6052 -0.0000
 
              Baa    -0.0368    -4.936    -1.761    -1.646  0.9943 -0.1063 -0.0000
     3 C(13)  Bbb    -0.0042    -0.562    -0.200    -0.187  0.0000  0.0000  1.0000
              Bcc     0.0410     5.497     1.962     1.834  0.1063  0.9943  0.0000
 
              Baa    -0.0532    -7.134    -2.546    -2.380  0.0000  0.0000  1.0000
     4 C(13)  Bbb     0.0200     2.681     0.957     0.894  0.9995  0.0304  0.0000
              Bcc     0.0332     4.453     1.589     1.485 -0.0304  0.9995  0.0000
 
              Baa    -0.0338    -4.531    -1.617    -1.512  0.9802 -0.1978 -0.0000
     5 C(13)  Bbb    -0.0044    -0.590    -0.210    -0.197  0.0000  0.0000  1.0000
              Bcc     0.0382     5.121     1.827     1.708  0.1978  0.9802  0.0000
 
              Baa    -0.1062   -14.255    -5.086    -4.755  0.0000  0.0000  1.0000
     6 C(13)  Bbb    -0.0226    -3.037    -1.084    -1.013 -0.4857  0.8741 -0.0000
              Bcc     0.1289    17.292     6.170     5.768  0.8741  0.4857  0.0000
 
              Baa    -0.1307    -6.839    -2.440    -2.281  0.0000  0.0000  1.0000
     7 Cl(35) Bbb    -0.0606    -3.170    -1.131    -1.057  0.1549  0.9879  0.0000
              Bcc     0.1912    10.009     3.572     3.339  0.9879 -0.1549 -0.0000
 
              Baa    -0.0118    -6.278    -2.240    -2.094  0.0000  0.0000  1.0000
     8 H(1)   Bbb    -0.0103    -5.520    -1.970    -1.841  0.1915  0.9815  0.0000
              Bcc     0.0221    11.798     4.210     3.935  0.9815 -0.1915 -0.0000
 
              Baa    -0.0563    -2.944    -1.051    -0.982  0.8538  0.5205  0.0000
     9 Cl(35) Bbb    -0.0191    -0.999    -0.357    -0.333  0.0000  0.0000  1.0000
              Bcc     0.0753     3.944     1.407     1.315 -0.5205  0.8538  0.0000
 
              Baa    -0.0026    -1.398    -0.499    -0.466  0.0000  0.0000  1.0000
    10 H(1)   Bbb     0.0011     0.609     0.217     0.203  0.9210  0.3895  0.0000
              Bcc     0.0015     0.789     0.282     0.263 -0.3895  0.9210  0.0000
 
              Baa    -0.0047    -2.528    -0.902    -0.843  0.0000  0.0000  1.0000
    11 H(1)   Bbb    -0.0042    -2.268    -0.809    -0.756 -0.6592  0.7520 -0.0000
              Bcc     0.0090     4.795     1.711     1.599  0.7520  0.6592  0.0000
 

 ---------------------------------------------------------------------------------

 Calling FoFJK, ICntrl=      2127 FMM=F ISym2X=1 I1Cent= 0 IOpClX= 1 NMat=1 NMatS=1 NMatT=0.
 ***** Axes restored to original set *****
 -------------------------------------------------------------------
 Center     Atomic                   Forces (Hartrees/Bohr)
 Number     Number              X              Y              Z
 -------------------------------------------------------------------
      1        6          -0.010184090    0.000924430   -0.000000000
      2        6           0.009237711   -0.006507516   -0.000000000
      3        6          -0.029078455   -0.016488079   -0.000000000
      4        6           0.003150115   -0.000279515   -0.000000000
      5        6          -0.003738552    0.002236667   -0.000000000
      6        6           0.042362366    0.013331837   -0.000000000
      7       17          -0.023033769   -0.012836353   -0.000000000
      8        1           0.002105436   -0.009951166   -0.000000000
      9       17           0.020486091    0.011901170   -0.000000000
     10        1          -0.010308903    0.007203402   -0.000000000
     11        1          -0.000997951    0.010465123   -0.000000000
 -------------------------------------------------------------------
 Cartesian Forces:  Max     0.042362366 RMS     0.012284180

 GradGradGradGradGradGradGradGradGradGradGradGradGradGradGradGradGradGrad
 Berny optimization.
 FormGI is forming the generalized inverse of G from B-inverse, IUseBI=4.
 Internal  Forces:  Max     0.026365920 RMS     0.007314565
 Search for a local minimum.
 Step number   1 out of a maximum of   57
 All quantities printed in internal units (Hartrees-Bohrs-Radians)
 Mixed Optimization -- RFO/linear search
 Second derivative matrix not updated -- first step.
 ITU=  0
     Eigenvalues ---    0.01941   0.01967   0.01992   0.02020   0.02041
     Eigenvalues ---    0.02079   0.02125   0.02375   0.16000   0.16000
     Eigenvalues ---    0.16000   0.22327   0.23434   0.24596   0.25000
     Eigenvalues ---    0.25000   0.33553   0.33744   0.33977   0.36880
     Eigenvalues ---    0.38086   0.40571   0.42343   0.43418   0.44870
     Eigenvalues ---    0.48601   0.50439
 RFO step:  Lambda=-6.76592909D-03 EMin= 1.94069242D-02
 Linear search not attempted -- first point.
 Iteration  1 RMS(Cart)=  0.02244846 RMS(Int)=  0.00016042
 Iteration  2 RMS(Cart)=  0.00020236 RMS(Int)=  0.00003448
 Iteration  3 RMS(Cart)=  0.00000003 RMS(Int)=  0.00003448
 ClnCor:  largest displacement from symmetrization is 4.53D-10 for atom    10.
 Variable       Old X    -DE/DX   Delta X   Delta X   Delta X     New X
                                 (Linear)    (Quad)   (Total)
    R1        2.58593  -0.00183   0.00000  -0.00311  -0.00307   2.58286
    R2        2.60087  -0.00636   0.00000  -0.01210  -0.01204   2.58882
    R3        2.67179  -0.01209   0.00000  -0.02753  -0.02754   2.64425
    R4        2.07368  -0.01006   0.00000  -0.02903  -0.02903   2.04466
    R5        2.66114  -0.01411   0.00000  -0.03192  -0.03197   2.62917
    R6        3.19728   0.02369   0.00000   0.06307   0.06307   3.26035
    R7        2.64506  -0.00995   0.00000  -0.02191  -0.02195   2.62311
    R8        2.08091  -0.01250   0.00000  -0.03651  -0.03651   2.04440
    R9        2.67135  -0.01315   0.00000  -0.02971  -0.02971   2.64165
   R10        2.07764  -0.01050   0.00000  -0.03049  -0.03049   2.04715
   R11        3.17940   0.02637   0.00000   0.06802   0.06802   3.24742
    A1        2.25139  -0.01131   0.00000  -0.04247  -0.04234   2.20905
    A2        2.00034   0.00600   0.00000   0.02651   0.02654   2.02688
    A3        2.14343  -0.00144   0.00000  -0.00392  -0.00393   2.13950
    A4        2.13941  -0.00456   0.00000  -0.02259  -0.02261   2.11680
    A5        2.09834   0.00002   0.00000  -0.00166  -0.00173   2.09661
    A6        2.09030   0.00060   0.00000   0.00322   0.00325   2.09355
    A7        2.09455  -0.00062   0.00000  -0.00155  -0.00152   2.09302
    A8        2.11691  -0.00115   0.00000  -0.00775  -0.00785   2.10906
    A9        2.08652  -0.00090   0.00000  -0.00499  -0.00494   2.08158
   A10        2.07975   0.00206   0.00000   0.01275   0.01280   2.09255
   A11        2.08910   0.00215   0.00000   0.00809   0.00805   2.09715
   A12        2.09769  -0.00045   0.00000  -0.00033  -0.00031   2.09737
   A13        2.09640  -0.00169   0.00000  -0.00775  -0.00773   2.08867
   A14        2.01028   0.00429   0.00000   0.01728   0.01734   2.02762
   A15        2.14310  -0.00280   0.00000  -0.01121  -0.01123   2.13187
   A16        2.12981  -0.00149   0.00000  -0.00608  -0.00610   2.12370
    D1        0.00000   0.00000   0.00000   0.00000   0.00000   0.00000
    D2        3.14159   0.00000   0.00000   0.00000   0.00000   3.14159
    D3        0.00000   0.00000   0.00000  -0.00000   0.00000   0.00000
    D4        3.14159  -0.00000   0.00000  -0.00000   0.00000   3.14159
    D5        0.00000  -0.00000   0.00000  -0.00000   0.00000   0.00000
    D6        3.14159  -0.00000   0.00000  -0.00000   0.00000   3.14159
    D7        3.14159  -0.00000   0.00000  -0.00000   0.00000   3.14159
    D8        0.00000  -0.00000   0.00000  -0.00000   0.00000   0.00000
    D9        0.00000   0.00000   0.00000   0.00000   0.00000   0.00000
   D10        3.14159   0.00000   0.00000   0.00000   0.00000   3.14159
   D11        3.14159  -0.00000   0.00000   0.00000   0.00000   3.14159
   D12        0.00000   0.00000   0.00000   0.00000   0.00000   0.00000
   D13        0.00000   0.00000   0.00000   0.00000   0.00000   0.00000
   D14        3.14159   0.00000   0.00000   0.00000   0.00000   3.14159
   D15        3.14159   0.00000   0.00000   0.00000   0.00000   3.14159
   D16        0.00000   0.00000   0.00000   0.00000   0.00000   0.00000
   D17        0.00000  -0.00000   0.00000  -0.00000   0.00000   0.00000
   D18        3.14159  -0.00000   0.00000   0.00000   0.00000   3.14159
   D19        3.14159  -0.00000   0.00000  -0.00000   0.00000   3.14159
   D20        0.00000  -0.00000   0.00000   0.00000   0.00000   0.00000
         Item               Value     Threshold  Converged?
 Maximum Force            0.026366     0.000450     NO 
 RMS     Force            0.007315     0.000300     NO 
 Maximum Displacement     0.071722     0.001800     NO 
 RMS     Displacement     0.022457     0.001200     NO 
 Predicted change in Energy=-3.446588D-03
 GradGradGradGradGradGradGradGradGradGradGradGradGradGradGradGradGradGrad

                          Input orientation:                          
 ---------------------------------------------------------------------
 Center     Atomic      Atomic             Coordinates (Angstroms)
 Number     Number       Type             X           Y           Z
 ---------------------------------------------------------------------
      1          6           0       -3.077726    0.125629    0.000000
      2          6           0       -1.957624    0.908886    0.000000
      3          6           0       -0.732653    0.232553    0.000000
      4          6           0       -0.702957   -1.158426    0.000000
      5          6           0       -1.879316   -1.895296    0.000000
      6          6           0       -3.116106   -1.243780    0.000000
      7         17           0       -4.596152   -2.117037    0.000000
      8          1           0       -2.002552    1.989938    0.000000
      9         17           0        0.743975    1.124878    0.000000
     10          1           0        0.251882   -1.667037    0.000000
     11          1           0       -1.843541   -2.978010    0.000000
 ---------------------------------------------------------------------
                    Distance matrix (angstroms):
                    1          2          3          4          5
     1  C    0.000000
     2  C    1.366792   0.000000
     3  C    2.347509   1.399278   0.000000
     4  C    2.699689   2.418257   1.391296   0.000000
     5  C    2.349537   2.805275   2.417142   1.388091   0.000000
     6  C    1.369946   2.444596   2.803642   2.414658   1.397900
     7  Cl   2.708351   4.014728   4.521857   4.009476   2.725870
     8  H    2.152127   1.081985   2.168189   3.406045   3.887188
     9  Cl   3.950177   2.710220   1.725304   2.703163   4.000388
    10  H    3.781526   3.393715   2.139568   1.081852   2.143387
    11  H    3.340028   3.888570   3.397321   2.147515   1.083305
                    6          7          8          9         10
     6  C    0.000000
     7  Cl   1.718462   0.000000
     8  H    3.420079   4.857366   0.000000
     9  Cl   4.528882   6.247157   2.879538   0.000000
    10  H    3.394480   4.868874   4.296038   2.834951   0.000000
    11  H    2.151041   2.884118   4.970493   4.850663   2.471730
                   11
    11  H    0.000000
 Stoichiometry    C6H3Cl2(2)
 Framework group  CS[SG(C6H3Cl2)]
 Deg. of freedom    19
 Full point group                 CS      NOp   2
 Largest Abelian subgroup         CS      NOp   2
 Largest concise Abelian subgroup C1      NOp   1
                         Standard orientation:                         
 ---------------------------------------------------------------------
 Center     Atomic      Atomic             Coordinates (Angstroms)
 Number     Number       Type             X           Y           Z
 ---------------------------------------------------------------------
      1          6           0        0.001329   -1.351283    0.000000
      2          6           0       -1.220716   -0.739133    0.000000
      3          6           0       -1.209105    0.660097   -0.000000
      4          6           0        0.000000    1.348406   -0.000000
      5          6           0        1.208033    0.664701   -0.000000
      6          6           0        1.223873   -0.733110    0.000000
      7         17           0        2.696421   -1.618952    0.000000
      8          1           0       -2.150016   -1.293292    0.000000
      9         17           0       -2.696794    1.533857   -0.000000
     10          1           0       -0.007286    2.430234   -0.000000
     11          1           0        2.143153    1.211602   -0.000000
 ---------------------------------------------------------------------
 Rotational constants (GHZ):           6.1493556           0.6677407           0.6023349
 Standard basis: 6-311++G(d,p) (5D, 7F)
 There are   166 symmetry adapted cartesian basis functions of A'  symmetry.
 There are    55 symmetry adapted cartesian basis functions of A"  symmetry.
 There are   158 symmetry adapted basis functions of A'  symmetry.
 There are    55 symmetry adapted basis functions of A"  symmetry.
   213 basis functions,   349 primitive gaussians,   221 cartesian basis functions
    37 alpha electrons       36 beta electrons
       nuclear repulsion energy       436.6815125363 Hartrees.
 NAtoms=   11 NActive=   11 NUniq=   11 SFac= 1.00D+00 NAtFMM=   60 NAOKFM=F Big=F
 Integral buffers will be    131072 words long.
 Raffenetti 2 integral format.
 Two-electron integral symmetry is turned on.
 One-electron integrals computed using PRISM.
 NBasis=   213 RedAO= T EigKep=  1.47D-06  NBF=   158    55
 NBsUse=   213 1.00D-06 EigRej= -1.00D+00 NBFU=   158    55
 Initial guess from the checkpoint file:  "frequency_chks/124-1_4-ClBzNeutralRadical_Freq.chk"
 B after Tr=     0.000000   -0.000000   -0.000000
         Rot=    1.000000   -0.000000    0.000000   -0.000274 Ang=  -0.03 deg.
 Initial guess orbital symmetries:
 Alpha Orbitals:
       Occupied  (A') (A') (A') (A') (A') (A') (A') (A') (A') (A')
                 (A') (A') (A") (A') (A") (A') (A') (A') (A') (A')
                 (A') (A') (A') (A') (A') (A') (A') (A") (A') (A')
                 (A") (A') (A") (A') (A") (A') (A")
       Virtual   (A") (A") (A') (A') (A') (A') (A') (A") (A') (A')
                 (A") (A') (A") (A') (A') (A") (A') (A') (A') (A')
                 (A") (A") (A') (A') (A") (A') (A") (A') (A') (A')
                 (A") (A') (A') (A') (A') (A') (A') (A') (A') (A')
                 (A') (A') (A') (A') (A') (A') (A') (A') (A') (A')
                 (A") (A") (A') (A') (A') (A") (A') (A') (A") (A')
                 (A") (A') (A") (A") (A') (A') (A") (A') (A') (A')
                 (A') (A') (A") (A') (A') (A') (A') (A") (A') (A")
                 (A') (A") (A') (A') (A') (A') (A') (A") (A') (A')
                 (A") (A") (A') (A') (A") (A') (A') (A') (A") (A")
                 (A') (A') (A') (A') (A") (A') (A") (A') (A") (A')
                 (A') (A') (A") (A") (A') (A') (A") (A') (A") (A')
                 (A') (A') (A") (A') (A') (A") (A") (A") (A') (A')
                 (A') (A') (A') (A') (A') (A') (A") (A') (A') (A')
                 (A') (A") (A') (A") (A") (A") (A') (A") (A') (A')
                 (A') (A') (A') (A') (A') (A') (A') (A') (A') (A')
                 (A') (A') (A') (A') (A') (A') (A') (A') (A") (A")
                 (A') (A') (A') (A') (A') (A')
 Beta  Orbitals:
       Occupied  (A') (A') (A') (A') (A') (A') (A') (A') (A') (A')
                 (A') (A') (A") (A') (A") (A') (A') (A') (A') (A')
                 (A') (A') (A') (A') (A') (A') (A') (A") (A') (A')
                 (A") (A') (A") (A') (A") (A")
       Virtual   (A') (A") (A') (A") (A') (A') (A') (A') (A") (A')
                 (A') (A") (A') (A") (A') (A') (A") (A') (A') (A')
                 (A") (A') (A") (A') (A') (A") (A') (A") (A') (A')
                 (A') (A") (A') (A') (A') (A') (A') (A') (A') (A')
                 (A') (A') (A') (A') (A') (A') (A') (A') (A') (A')
                 (A') (A") (A") (A') (A') (A') (A") (A') (A') (A')
                 (A") (A') (A") (A") (A") (A') (A") (A') (A') (A')
                 (A') (A') (A') (A") (A') (A') (A') (A') (A") (A')
                 (A") (A') (A") (A') (A') (A') (A') (A') (A") (A')
                 (A') (A") (A") (A') (A') (A") (A') (A') (A') (A")
                 (A") (A') (A') (A') (A') (A") (A') (A") (A') (A")
                 (A') (A') (A') (A") (A") (A') (A') (A") (A') (A")
                 (A') (A') (A') (A") (A') (A') (A") (A") (A") (A')
                 (A') (A') (A') (A') (A') (A') (A') (A") (A') (A')
                 (A') (A') (A") (A') (A") (A") (A") (A') (A") (A')
                 (A') (A') (A') (A') (A') (A') (A') (A') (A') (A')
                 (A') (A') (A') (A') (A') (A') (A') (A') (A') (A")
                 (A") (A') (A') (A') (A') (A') (A')
 Initial guess <Sx>= 0.0000 <Sy>= 0.0000 <Sz>= 0.5000 <S**2>= 0.7628 S= 0.5064
 ExpMin= 3.60D-02 ExpMax= 1.06D+05 ExpMxC= 3.62D+03 IAcc=3 IRadAn=         5 AccDes= 0.00D+00
 Harris functional with IExCor= 1009 and IRadAn=       5 diagonalized for initial guess.
 HarFok:  IExCor= 1009 AccDes= 0.00D+00 IRadAn=         5 IDoV= 1 UseB2=F ITyADJ=14
 ICtDFT=  3500011 ScaDFX=  1.000000  1.000000  1.000000  1.000000
 FoFCou: FMM=F IPFlag=           0 FMFlag=      100000 FMFlg1=           0
         NFxFlg=           0 DoJE=T BraDBF=F KetDBF=T FulRan=T
         wScrn=  0.000000 ICntrl=       500 IOpCl=  0 I1Cent=   200000004 NGrid=           0
         NMat0=    1 NMatS0=      1 NMatT0=    0 NMatD0=    1 NMtDS0=    0 NMtDT0=    0
 Petite list used in FoFCou.
 Keep R1 and R2 ints in memory in symmetry-blocked form, NReq=411615841.
 Requested convergence on RMS density matrix=1.00D-08 within 128 cycles.
 Requested convergence on MAX density matrix=1.00D-06.
 Requested convergence on             energy=1.00D-06.
 No special actions if energy rises.
 SCF Done:  E(UM062X) =  -1150.71022374     A.U. after   17 cycles
            NFock= 17  Conv=0.42D-08     -V/T= 2.0024
 <Sx>= 0.0000 <Sy>= 0.0000 <Sz>= 0.5000 <S**2>= 0.7625 S= 0.5062
 <L.S>=  0.00000000000    
 Annihilation of the first spin contaminant:
 S**2 before annihilation     0.7625,   after     0.7501
 Calling FoFJK, ICntrl=      2127 FMM=F ISym2X=1 I1Cent= 0 IOpClX= 1 NMat=1 NMatS=1 NMatT=0.
 ***** Axes restored to original set *****
 -------------------------------------------------------------------
 Center     Atomic                   Forces (Hartrees/Bohr)
 Number     Number              X              Y              Z
 -------------------------------------------------------------------
      1        6          -0.006245669    0.000842293    0.000000000
      2        6           0.004467002   -0.000392358   -0.000000000
      3        6          -0.009830592   -0.003437676    0.000000000
      4        6           0.003612010    0.000265240   -0.000000000
      5        6          -0.004083673   -0.001555444    0.000000000
      6        6           0.013472769    0.004575048   -0.000000000
      7       17          -0.006397863   -0.003693731    0.000000000
      8        1           0.000187684    0.000759107   -0.000000000
      9       17           0.004826737    0.003207380   -0.000000000
     10        1           0.000231739   -0.000285832    0.000000000
     11        1          -0.000240144   -0.000284027    0.000000000
 -------------------------------------------------------------------
 Cartesian Forces:  Max     0.013472769 RMS     0.003861188

 GradGradGradGradGradGradGradGradGradGradGradGradGradGradGradGradGradGrad
 Berny optimization.
 Using GEDIIS/GDIIS optimizer.
 FormGI is forming the generalized inverse of G from B-inverse, IUseBI=4.
 Internal  Forces:  Max     0.007387229 RMS     0.001859675
 Search for a local minimum.
 Step number   2 out of a maximum of   57
 All quantities printed in internal units (Hartrees-Bohrs-Radians)
 Mixed Optimization -- RFO/linear search
 Update second derivatives using D2CorX and points    1    2
 DE= -3.95D-03 DEPred=-3.45D-03 R= 1.15D+00
 TightC=F SS=  1.41D+00  RLast= 1.37D-01 DXNew= 5.0454D-01 4.1230D-01
 Trust test= 1.15D+00 RLast= 1.37D-01 DXMaxT set to 4.12D-01
 ITU=  1  0
 Use linear search instead of GDIIS.
     Eigenvalues ---    0.01941   0.01967   0.01993   0.02019   0.02041
     Eigenvalues ---    0.02080   0.02128   0.02369   0.15959   0.16000
     Eigenvalues ---    0.16026   0.20580   0.22603   0.23952   0.24999
     Eigenvalues ---    0.25022   0.32842   0.33645   0.33877   0.35482
     Eigenvalues ---    0.37440   0.40491   0.42968   0.43627   0.44890
     Eigenvalues ---    0.49702   0.51140
 RFO step:  Lambda=-4.52217076D-04 EMin= 1.94063480D-02
 Quartic linear search produced a step of  0.21255.
 Iteration  1 RMS(Cart)=  0.00670213 RMS(Int)=  0.00004740
 Iteration  2 RMS(Cart)=  0.00006345 RMS(Int)=  0.00001579
 Iteration  3 RMS(Cart)=  0.00000000 RMS(Int)=  0.00001579
 ClnCor:  largest displacement from symmetrization is 5.79D-09 for atom    10.
 Variable       Old X    -DE/DX   Delta X   Delta X   Delta X     New X
                                 (Linear)    (Quad)   (Total)
    R1        2.58286   0.00181  -0.00065   0.00466   0.00402   2.58689
    R2        2.58882   0.00057  -0.00256   0.00309   0.00056   2.58938
    R3        2.64425  -0.00178  -0.00585  -0.00097  -0.00683   2.63743
    R4        2.04466   0.00075  -0.00617   0.00693   0.00076   2.04542
    R5        2.62917   0.00036  -0.00680   0.00572  -0.00110   2.62807
    R6        3.26035   0.00579   0.01341   0.00976   0.02317   3.28352
    R7        2.62311   0.00114  -0.00467   0.00632   0.00164   2.62475
    R8        2.04440   0.00034  -0.00776   0.00658  -0.00118   2.04322
    R9        2.64165  -0.00206  -0.00631  -0.00137  -0.00768   2.63397
   R10        2.04715   0.00028  -0.00648   0.00546  -0.00102   2.04613
   R11        3.24742   0.00739   0.01446   0.01351   0.02797   3.27539
    A1        2.20905  -0.00387  -0.00900  -0.01240  -0.02135   2.18771
    A2        2.02688   0.00010   0.00564  -0.00322   0.00243   2.02931
    A3        2.13950   0.00018  -0.00084   0.00193   0.00109   2.14059
    A4        2.11680  -0.00027  -0.00481   0.00129  -0.00352   2.11329
    A5        2.09661   0.00279  -0.00037   0.01412   0.01372   2.11033
    A6        2.09355  -0.00180   0.00069  -0.00937  -0.00866   2.08488
    A7        2.09302  -0.00099  -0.00032  -0.00475  -0.00506   2.08797
    A8        2.10906  -0.00205  -0.00167  -0.00951  -0.01122   2.09783
    A9        2.08158   0.00117  -0.00105   0.00717   0.00614   2.08772
   A10        2.09255   0.00088   0.00272   0.00234   0.00508   2.09763
   A11        2.09715  -0.00111   0.00171  -0.00675  -0.00506   2.09209
   A12        2.09737   0.00081  -0.00007   0.00476   0.00470   2.10207
   A13        2.08867   0.00030  -0.00164   0.00199   0.00036   2.08902
   A14        2.02762   0.00415   0.00369   0.01777   0.02148   2.04910
   A15        2.13187  -0.00219  -0.00239  -0.00906  -0.01146   2.12040
   A16        2.12370  -0.00196  -0.00130  -0.00871  -0.01002   2.11368
    D1        0.00000  -0.00000   0.00000  -0.00000  -0.00000   0.00000
    D2        3.14159  -0.00000   0.00000  -0.00000   0.00000   3.14159
    D3       -0.00000   0.00000   0.00000  -0.00000   0.00000   0.00000
    D4        3.14159   0.00000   0.00000   0.00000   0.00000   3.14159
    D5       -0.00000   0.00000   0.00000   0.00000   0.00000   0.00000
    D6        3.14159   0.00000   0.00000   0.00000   0.00000   3.14159
    D7        3.14159   0.00000   0.00000   0.00000   0.00000   3.14159
    D8        0.00000   0.00000   0.00000   0.00000   0.00000   0.00000
    D9        0.00000   0.00000   0.00000   0.00000   0.00000   0.00000
   D10        3.14159   0.00000   0.00000  -0.00000   0.00000   3.14159
   D11        3.14159   0.00000   0.00000   0.00000   0.00000   3.14159
   D12       -0.00000   0.00000   0.00000  -0.00000   0.00000   0.00000
   D13       -0.00000  -0.00000   0.00000  -0.00000   0.00000   0.00000
   D14        3.14159  -0.00000   0.00000  -0.00000   0.00000   3.14159
   D15        3.14159  -0.00000   0.00000  -0.00000   0.00000   3.14159
   D16        0.00000  -0.00000   0.00000  -0.00000  -0.00000   0.00000
   D17        0.00000   0.00000   0.00000   0.00000   0.00000   0.00000
   D18        3.14159  -0.00000   0.00000  -0.00000   0.00000   3.14159
   D19        3.14159   0.00000   0.00000   0.00000   0.00000   3.14159
   D20       -0.00000  -0.00000   0.00000  -0.00000   0.00000   0.00000
         Item               Value     Threshold  Converged?
 Maximum Force            0.007387     0.000450     NO 
 RMS     Force            0.001860     0.000300     NO 
 Maximum Displacement     0.018619     0.001800     NO 
 RMS     Displacement     0.006698     0.001200     NO 
 Predicted change in Energy=-3.465678D-04
 GradGradGradGradGradGradGradGradGradGradGradGradGradGradGradGradGradGrad

                          Input orientation:                          
 ---------------------------------------------------------------------
 Center     Atomic      Atomic             Coordinates (Angstroms)
 Number     Number       Type             X           Y           Z
 ---------------------------------------------------------------------
      1          6           0       -3.086907    0.132170    0.000000
      2          6           0       -1.959250    0.908272   -0.000000
      3          6           0       -0.740844    0.227557   -0.000000
      4          6           0       -0.699068   -1.162531    0.000000
      5          6           0       -1.878020   -1.896887    0.000000
      6          6           0       -3.106254   -1.237934    0.000000
      7         17           0       -4.596896   -2.122350    0.000000
      8          1           0       -1.994959    1.990072   -0.000000
      9         17           0        0.742995    1.131632   -0.000000
     10          1           0        0.256516   -1.668408    0.000000
     11          1           0       -1.850084   -2.979294    0.000000
 ---------------------------------------------------------------------
                    Distance matrix (angstroms):
                    1          2          3          4          5
     1  C    0.000000
     2  C    1.368921   0.000000
     3  C    2.348001   1.395666   0.000000
     4  C    2.716252   2.424104   1.390716   0.000000
     5  C    2.361881   2.806335   2.409654   1.388959   0.000000
     6  C    1.370241   2.433478   2.782594   2.408366   1.393836
     7  Cl   2.713472   4.017692   4.515661   4.014264   2.728208
     8  H    2.155029   1.082389   2.163160   3.408554   3.888718
     9  Cl   3.958165   2.711460   1.737564   2.709747   4.005202
    10  H    3.797441   3.398366   2.142291   1.081227   2.146729
    11  H    3.348274   3.889098   3.393274   2.150689   1.082767
                    6          7          8          9         10
     6  C    0.000000
     7  Cl   1.733264   0.000000
     8  H    3.413942   4.866425   0.000000
     9  Cl   4.520128   6.253226   2.869374   0.000000
    10  H    3.390211   4.874594   4.295767   2.841986   0.000000
    11  H    2.147160   2.877382   4.971477   4.860429   2.481166
                   11
    11  H    0.000000
 Stoichiometry    C6H3Cl2(2)
 Framework group  CS[SG(C6H3Cl2)]
 Deg. of freedom    19
 Full point group                 CS      NOp   2
 Largest Abelian subgroup         CS      NOp   2
 Largest concise Abelian subgroup C1      NOp   1
                         Standard orientation:                         
 ---------------------------------------------------------------------
 Center     Atomic      Atomic             Coordinates (Angstroms)
 Number     Number       Type             X           Y           Z
 ---------------------------------------------------------------------
      1          6           0        0.001783   -1.361713    0.000000
      2          6           0       -1.218388   -0.741127    0.000000
      3          6           0       -1.201645    0.654439    0.000000
      4          6           0        0.000000    1.354538   -0.000000
      5          6           0        1.207965    0.668954   -0.000000
      6          6           0        1.215036   -0.724865   -0.000000
      7         17           0        2.703618   -1.612744   -0.000000
      8          1           0       -2.152011   -1.288771    0.000000
      9         17           0       -2.704256    1.526959    0.000000
     10          1           0       -0.011476    2.435705   -0.000000
     11          1           0        2.145831    1.210056   -0.000000
 ---------------------------------------------------------------------
 Rotational constants (GHZ):           6.1127106           0.6670964           0.6014577
 Standard basis: 6-311++G(d,p) (5D, 7F)
 There are   166 symmetry adapted cartesian basis functions of A'  symmetry.
 There are    55 symmetry adapted cartesian basis functions of A"  symmetry.
 There are   158 symmetry adapted basis functions of A'  symmetry.
 There are    55 symmetry adapted basis functions of A"  symmetry.
   213 basis functions,   349 primitive gaussians,   221 cartesian basis functions
    37 alpha electrons       36 beta electrons
       nuclear repulsion energy       436.0929527330 Hartrees.
 NAtoms=   11 NActive=   11 NUniq=   11 SFac= 1.00D+00 NAtFMM=   60 NAOKFM=F Big=F
 Integral buffers will be    131072 words long.
 Raffenetti 2 integral format.
 Two-electron integral symmetry is turned on.
 One-electron integrals computed using PRISM.
 NBasis=   213 RedAO= T EigKep=  1.50D-06  NBF=   158    55
 NBsUse=   213 1.00D-06 EigRej= -1.00D+00 NBFU=   158    55
 Initial guess from the checkpoint file:  "frequency_chks/124-1_4-ClBzNeutralRadical_Freq.chk"
 B after Tr=    -0.000000    0.000000    0.000000
         Rot=    0.999999   -0.000000    0.000000   -0.001284 Ang=  -0.15 deg.
 Initial guess orbital symmetries:
 Alpha Orbitals:
       Occupied  (A') (A') (A') (A') (A') (A') (A') (A') (A') (A')
                 (A') (A') (A') (A") (A") (A') (A') (A') (A') (A')
                 (A') (A') (A') (A') (A') (A') (A') (A") (A') (A')
                 (A") (A') (A") (A') (A") (A') (A")
       Virtual   (A") (A") (A') (A') (A') (A') (A') (A") (A') (A')
                 (A") (A') (A") (A') (A') (A") (A') (A') (A') (A")
                 (A') (A") (A') (A') (A") (A') (A") (A') (A') (A')
                 (A") (A') (A') (A') (A') (A') (A') (A') (A') (A')
                 (A') (A') (A') (A') (A') (A') (A') (A') (A') (A')
                 (A") (A") (A') (A') (A') (A") (A') (A') (A") (A')
                 (A") (A') (A") (A") (A') (A') (A") (A') (A') (A')
                 (A') (A') (A") (A') (A') (A') (A') (A") (A') (A")
                 (A') (A") (A') (A') (A') (A') (A') (A") (A') (A')
                 (A") (A") (A') (A') (A") (A') (A') (A') (A") (A")
                 (A') (A') (A') (A') (A") (A') (A") (A') (A") (A')
                 (A') (A') (A") (A") (A') (A') (A") (A') (A") (A')
                 (A') (A') (A") (A') (A') (A") (A") (A") (A') (A')
                 (A') (A') (A') (A') (A') (A') (A") (A') (A') (A')
                 (A') (A") (A") (A') (A") (A") (A') (A") (A') (A')
                 (A') (A') (A') (A') (A') (A') (A') (A') (A') (A')
                 (A') (A') (A') (A') (A') (A') (A') (A') (A") (A")
                 (A') (A') (A') (A') (A') (A')
 Beta  Orbitals:
       Occupied  (A') (A') (A') (A') (A') (A') (A') (A') (A') (A')
                 (A') (A') (A") (A') (A") (A') (A') (A') (A') (A')
                 (A') (A') (A') (A') (A') (A') (A') (A") (A') (A')
                 (A") (A') (A") (A') (A") (A")
       Virtual   (A') (A") (A') (A") (A') (A') (A') (A') (A") (A')
                 (A') (A") (A') (A") (A') (A') (A") (A') (A') (A')
                 (A') (A") (A") (A') (A') (A") (A') (A") (A') (A')
                 (A') (A') (A") (A') (A') (A') (A') (A') (A') (A')
                 (A') (A') (A') (A') (A') (A') (A') (A') (A') (A')
                 (A') (A") (A") (A') (A') (A') (A") (A') (A') (A')
                 (A") (A') (A") (A") (A") (A') (A") (A') (A') (A')
                 (A') (A') (A') (A") (A') (A') (A') (A') (A') (A")
                 (A") (A') (A") (A') (A') (A') (A') (A') (A') (A")
                 (A') (A") (A") (A') (A') (A") (A') (A') (A') (A")
                 (A") (A') (A') (A') (A') (A") (A') (A") (A') (A")
                 (A') (A') (A') (A") (A") (A') (A') (A") (A') (A")
                 (A') (A') (A') (A") (A') (A') (A") (A") (A") (A')
                 (A') (A') (A') (A') (A') (A') (A') (A") (A') (A')
                 (A') (A') (A") (A") (A') (A") (A") (A') (A") (A')
                 (A') (A') (A') (A') (A') (A') (A') (A') (A') (A')
                 (A') (A') (A') (A') (A') (A') (A') (A') (A') (A")
                 (A") (A') (A') (A') (A') (A') (A')
 Initial guess <Sx>= 0.0000 <Sy>= 0.0000 <Sz>= 0.5000 <S**2>= 0.7625 S= 0.5062
 Keep R1 and R2 ints in memory in symmetry-blocked form, NReq=411615841.
 Requested convergence on RMS density matrix=1.00D-08 within 128 cycles.
 Requested convergence on MAX density matrix=1.00D-06.
 Requested convergence on             energy=1.00D-06.
 No special actions if energy rises.
 SCF Done:  E(UM062X) =  -1150.71063852     A.U. after   16 cycles
            NFock= 16  Conv=0.63D-08     -V/T= 2.0024
 <Sx>= 0.0000 <Sy>= 0.0000 <Sz>= 0.5000 <S**2>= 0.7626 S= 0.5063
 <L.S>=  0.00000000000    
 Annihilation of the first spin contaminant:
 S**2 before annihilation     0.7626,   after     0.7501
 Calling FoFJK, ICntrl=      2127 FMM=F ISym2X=1 I1Cent= 0 IOpClX= 1 NMat=1 NMatS=1 NMatT=0.
 ***** Axes restored to original set *****
 -------------------------------------------------------------------
 Center     Atomic                   Forces (Hartrees/Bohr)
 Number     Number              X              Y              Z
 -------------------------------------------------------------------
      1        6          -0.001486185   -0.000910832    0.000000000
      2        6           0.000981465    0.001214556   -0.000000000
      3        6          -0.001767309   -0.001103464    0.000000000
      4        6           0.001170112    0.000815420   -0.000000000
      5        6          -0.001268414   -0.001020826    0.000000000
      6        6           0.002527168    0.001408094   -0.000000000
      7       17          -0.001318715   -0.000656103    0.000000000
      8        1           0.000076153    0.000428022   -0.000000000
      9       17           0.000719509    0.000515338   -0.000000000
     10        1           0.000509798   -0.000224047   -0.000000000
     11        1          -0.000143582   -0.000466157    0.000000000
 -------------------------------------------------------------------
 Cartesian Forces:  Max     0.002527168 RMS     0.000897165

 GradGradGradGradGradGradGradGradGradGradGradGradGradGradGradGradGradGrad
 Berny optimization.
 Using GEDIIS/GDIIS optimizer.
 FormGI is forming the generalized inverse of G from B-inverse, IUseBI=4.
 Internal  Forces:  Max     0.001468834 RMS     0.000480660
 Search for a local minimum.
 Step number   3 out of a maximum of   57
 All quantities printed in internal units (Hartrees-Bohrs-Radians)
 Mixed Optimization -- En-DIIS/RFO-DIIS
 Update second derivatives using D2CorX and points    1    2    3
 DE= -4.15D-04 DEPred=-3.47D-04 R= 1.20D+00
 TightC=F SS=  1.41D+00  RLast= 5.61D-02 DXNew= 6.9340D-01 1.6818D-01
 Trust test= 1.20D+00 RLast= 5.61D-02 DXMaxT set to 4.12D-01
 ITU=  1  1  0
 Use linear search instead of GDIIS.
     Eigenvalues ---    0.01941   0.01966   0.01992   0.02019   0.02041
     Eigenvalues ---    0.02080   0.02128   0.02366   0.15490   0.16002
     Eigenvalues ---    0.16023   0.17561   0.22495   0.24005   0.25007
     Eigenvalues ---    0.25031   0.32156   0.33648   0.33878   0.35815
     Eigenvalues ---    0.37399   0.40458   0.42959   0.44015   0.45194
     Eigenvalues ---    0.49713   0.51571
 RFO step:  Lambda=-1.65402956D-05 EMin= 1.94071597D-02
 Quartic linear search produced a step of  0.24722.
 Iteration  1 RMS(Cart)=  0.00230673 RMS(Int)=  0.00000449
 Iteration  2 RMS(Cart)=  0.00000533 RMS(Int)=  0.00000238
 Iteration  3 RMS(Cart)=  0.00000000 RMS(Int)=  0.00000238
 ClnCor:  largest displacement from symmetrization is 2.36D-10 for atom    10.
 Variable       Old X    -DE/DX   Delta X   Delta X   Delta X     New X
                                 (Linear)    (Quad)   (Total)
    R1        2.58689   0.00106   0.00099   0.00162   0.00261   2.58950
    R2        2.58938  -0.00009   0.00014  -0.00066  -0.00052   2.58886
    R3        2.63743   0.00010  -0.00169   0.00106  -0.00063   2.63680
    R4        2.04542   0.00043   0.00019   0.00071   0.00090   2.04632
    R5        2.62807   0.00024  -0.00027   0.00022  -0.00006   2.62801
    R6        3.28352   0.00088   0.00573  -0.00033   0.00539   3.28891
    R7        2.62475   0.00126   0.00041   0.00257   0.00297   2.62772
    R8        2.04322   0.00056  -0.00029   0.00143   0.00114   2.04436
    R9        2.63397  -0.00007  -0.00190   0.00067  -0.00122   2.63274
   R10        2.04613   0.00046  -0.00025   0.00118   0.00093   2.04706
   R11        3.27539   0.00147   0.00692   0.00059   0.00751   3.28290
    A1        2.18771  -0.00029  -0.00528   0.00192  -0.00335   2.18436
    A2        2.02931  -0.00061   0.00060  -0.00311  -0.00251   2.02680
    A3        2.14059   0.00040   0.00027   0.00203   0.00230   2.14289
    A4        2.11329   0.00021  -0.00087   0.00108   0.00021   2.11350
    A5        2.11033   0.00092   0.00339   0.00200   0.00539   2.11572
    A6        2.08488  -0.00057  -0.00214  -0.00110  -0.00324   2.08165
    A7        2.08797  -0.00036  -0.00125  -0.00090  -0.00215   2.08582
    A8        2.09783  -0.00040  -0.00277   0.00022  -0.00256   2.09527
    A9        2.08772   0.00016   0.00152  -0.00074   0.00079   2.08851
   A10        2.09763   0.00024   0.00126   0.00051   0.00177   2.09940
   A11        2.09209  -0.00063  -0.00125  -0.00207  -0.00332   2.08877
   A12        2.10207   0.00047   0.00116   0.00192   0.00308   2.10515
   A13        2.08902   0.00015   0.00009   0.00015   0.00024   2.08926
   A14        2.04910   0.00101   0.00531   0.00103   0.00635   2.05545
   A15        2.12040  -0.00068  -0.00283  -0.00131  -0.00415   2.11625
   A16        2.11368  -0.00032  -0.00248   0.00028  -0.00220   2.11148
    D1       -0.00000   0.00000   0.00000   0.00000   0.00000   0.00000
    D2        3.14159   0.00000   0.00000   0.00000   0.00000   3.14159
    D3        0.00000   0.00000   0.00000   0.00000   0.00000   0.00000
    D4        3.14159   0.00000   0.00000  -0.00000   0.00000   3.14159
    D5        0.00000  -0.00000   0.00000  -0.00000   0.00000   0.00000
    D6        3.14159  -0.00000   0.00000  -0.00000   0.00000   3.14159
    D7        3.14159  -0.00000   0.00000  -0.00000   0.00000   3.14159
    D8       -0.00000  -0.00000   0.00000  -0.00000   0.00000   0.00000
    D9        0.00000   0.00000   0.00000   0.00000   0.00000   0.00000
   D10        3.14159   0.00000   0.00000   0.00000   0.00000   3.14159
   D11        3.14159   0.00000   0.00000   0.00000   0.00000   3.14159
   D12       -0.00000   0.00000   0.00000   0.00000   0.00000   0.00000
   D13       -0.00000   0.00000   0.00000   0.00000   0.00000   0.00000
   D14        3.14159  -0.00000   0.00000   0.00000   0.00000   3.14159
   D15        3.14159   0.00000   0.00000   0.00000   0.00000   3.14159
   D16        0.00000   0.00000   0.00000   0.00000   0.00000   0.00000
   D17        0.00000  -0.00000   0.00000  -0.00000   0.00000   0.00000
   D18        3.14159  -0.00000   0.00000  -0.00000   0.00000   3.14159
   D19        3.14159  -0.00000   0.00000  -0.00000   0.00000   3.14159
   D20        0.00000  -0.00000   0.00000  -0.00000   0.00000   0.00000
         Item               Value     Threshold  Converged?
 Maximum Force            0.001469     0.000450     NO 
 RMS     Force            0.000481     0.000300     NO 
 Maximum Displacement     0.005806     0.001800     NO 
 RMS     Displacement     0.002305     0.001200     NO 
 Predicted change in Energy=-2.444570D-05
 GradGradGradGradGradGradGradGradGradGradGradGradGradGradGradGradGradGrad

                          Input orientation:                          
 ---------------------------------------------------------------------
 Center     Atomic      Atomic             Coordinates (Angstroms)
 Number     Number       Type             X           Y           Z
 ---------------------------------------------------------------------
      1          6           0       -3.088658    0.132911    0.000000
      2          6           0       -1.959905    0.909860   -0.000000
      3          6           0       -0.743464    0.226320   -0.000000
      4          6           0       -0.697611   -1.163609    0.000000
      5          6           0       -1.877622   -1.899237    0.000000
      6          6           0       -3.103339   -1.236977    0.000000
      7         17           0       -4.598059   -2.122305    0.000000
      8          1           0       -1.993200    1.992213   -0.000000
      9         17           0        0.742101    1.133045   -0.000000
     10          1           0        0.259588   -1.667713    0.000000
     11          1           0       -1.852601   -2.982208    0.000000
 ---------------------------------------------------------------------
                    Distance matrix (angstroms):
                    1          2          3          4          5
     1  C    0.000000
     2  C    1.370304   0.000000
     3  C    2.347053   1.395333   0.000000
     4  C    2.719939   2.427480   1.390685   0.000000
     5  C    2.365637   2.810302   2.409213   1.390530   0.000000
[...]
      7       17          -0.000060806    0.000026975    0.000000000
      8        1           0.000014031    0.000002097   -0.000000000
      9       17          -0.000042620   -0.000028615    0.000000000
     10        1           0.000072240   -0.000010827   -0.000000000
     11        1          -0.000006873   -0.000036036    0.000000000
 -------------------------------------------------------------------
 Cartesian Forces:  Max     0.000486384 RMS     0.000135634
 FormGI is forming the generalized inverse of G from B-inverse, IUseBI=4.

 GradGradGradGradGradGradGradGradGradGradGradGradGradGradGradGradGradGrad
 Berny optimization.
 Internal  Forces:  Max     0.000268340 RMS     0.000082073
 Search for a local minimum.
 Step number   1 out of a maximum of    2
 All quantities printed in internal units (Hartrees-Bohrs-Radians)
 Second derivative matrix not updated -- analytic derivatives used.
 ITU=  0
     Eigenvalues ---    0.01612   0.01782   0.01910   0.02319   0.02650
     Eigenvalues ---    0.03027   0.03203   0.03729   0.10608   0.10963
     Eigenvalues ---    0.11771   0.15164   0.16418   0.17225   0.17798
     Eigenvalues ---    0.19488   0.25453   0.27853   0.28210   0.36526
     Eigenvalues ---    0.36692   0.36998   0.42695   0.43217   0.47567
     Eigenvalues ---    0.49459   0.52832
 Angle between quadratic step and forces=  17.85 degrees.
 Linear search not attempted -- first point.
 Iteration  1 RMS(Cart)=  0.00065001 RMS(Int)=  0.00000029
 Iteration  2 RMS(Cart)=  0.00000039 RMS(Int)=  0.00000004
 ClnCor:  largest displacement from symmetrization is 7.07D-11 for atom    10.
 Variable       Old X    -DE/DX   Delta X   Delta X   Delta X     New X
                                 (Linear)    (Quad)   (Total)
    R1        2.58950   0.00004   0.00000   0.00007   0.00007   2.58957
    R2        2.58886  -0.00013   0.00000  -0.00042  -0.00042   2.58844
    R3        2.63680   0.00017   0.00000   0.00049   0.00049   2.63729
    R4        2.04632   0.00000   0.00000  -0.00009  -0.00009   2.04623
    R5        2.62801  -0.00001   0.00000  -0.00013  -0.00013   2.62788
    R6        3.28891  -0.00005   0.00000   0.00007   0.00007   3.28899
    R7        2.62772   0.00009   0.00000   0.00029   0.00029   2.62801
    R8        2.04436   0.00007   0.00000   0.00019   0.00019   2.04455
    R9        2.63274   0.00008   0.00000   0.00012   0.00012   2.63286
   R10        2.04706   0.00004   0.00000   0.00005   0.00005   2.04712
   R11        3.28290   0.00004   0.00000   0.00037   0.00037   3.28327
    A1        2.18436   0.00017   0.00000   0.00092   0.00092   2.18528
    A2        2.02680  -0.00027   0.00000  -0.00159  -0.00159   2.02521
    A3        2.14289   0.00015   0.00000   0.00107   0.00107   2.14396
    A4        2.11350   0.00012   0.00000   0.00052   0.00052   2.11402
    A5        2.11572   0.00015   0.00000   0.00092   0.00092   2.11664
    A6        2.08165  -0.00007   0.00000  -0.00041  -0.00041   2.08123
    A7        2.08582  -0.00008   0.00000  -0.00051  -0.00051   2.08531
    A8        2.09527   0.00002   0.00000   0.00026   0.00026   2.09554
    A9        2.08851  -0.00004   0.00000  -0.00046  -0.00046   2.08805
   A10        2.09940   0.00001   0.00000   0.00020   0.00020   2.09960
   A11        2.08877  -0.00017   0.00000  -0.00107  -0.00107   2.08770
   A12        2.10515   0.00009   0.00000   0.00059   0.00059   2.10574
   A13        2.08926   0.00008   0.00000   0.00048   0.00048   2.08975
   A14        2.05545   0.00009   0.00000   0.00055   0.00055   2.05600
   A15        2.11625  -0.00014   0.00000  -0.00092  -0.00092   2.11533
   A16        2.11148   0.00004   0.00000   0.00037   0.00037   2.11185
    D1       -0.00000  -0.00000   0.00000  -0.00000   0.00000   0.00000
    D2        3.14159  -0.00000   0.00000  -0.00000   0.00000   3.14159
    D3        0.00000  -0.00000   0.00000  -0.00000   0.00000   0.00000
    D4        3.14159  -0.00000   0.00000  -0.00000   0.00000   3.14159
    D5        0.00000   0.00000   0.00000   0.00000  -0.00000   0.00000
    D6        3.14159   0.00000   0.00000   0.00000   0.00000   3.14159
    D7        3.14159   0.00000   0.00000  -0.00000   0.00000   3.14159
    D8        0.00000   0.00000   0.00000  -0.00000   0.00000   0.00000
    D9       -0.00000  -0.00000   0.00000   0.00000   0.00000   0.00000
   D10        3.14159   0.00000   0.00000   0.00000   0.00000   3.14159
   D11        3.14159  -0.00000   0.00000   0.00000   0.00000   3.14159
   D12       -0.00000   0.00000   0.00000   0.00000   0.00000   0.00000
   D13        0.00000  -0.00000   0.00000  -0.00000   0.00000   0.00000
   D14        3.14159   0.00000   0.00000  -0.00000   0.00000   3.14159
   D15        3.14159  -0.00000   0.00000  -0.00000   0.00000   3.14159
   D16       -0.00000  -0.00000   0.00000  -0.00000   0.00000   0.00000
   D17       -0.00000  -0.00000   0.00000   0.00000   0.00000   0.00000
   D18        3.14159   0.00000   0.00000   0.00000   0.00000   3.14159
   D19        3.14159  -0.00000   0.00000   0.00000   0.00000   3.14159
   D20        0.00000   0.00000   0.00000   0.00000   0.00000   0.00000
         Item               Value     Threshold  Converged?
 Maximum Force            0.000268     0.000450     YES
 RMS     Force            0.000082     0.000300     YES
 Maximum Displacement     0.001924     0.001800     NO 
 RMS     Displacement     0.000650     0.001200     YES
 Predicted change in Energy=-8.523486D-07
                           ----------------------------
                           ! Non-Optimized Parameters !
                           ! (Angstroms and Degrees)  !
 --------------------------                            --------------------------
 ! Name  Definition              Value          Derivative Info.                !
 --------------------------------------------------------------------------------
 ! R1    R(1,2)                  1.3703         -DE/DX =    0.0                 !
 ! R2    R(1,6)                  1.3697         -DE/DX =   -0.0001              !
 ! R3    R(2,3)                  1.3956         -DE/DX =    0.0002              !
 ! R4    R(2,8)                  1.0828         -DE/DX =    0.0                 !
 ! R5    R(3,4)                  1.3906         -DE/DX =    0.0                 !
 ! R6    R(3,9)                  1.7405         -DE/DX =   -0.0001              !
 ! R7    R(4,5)                  1.3907         -DE/DX =    0.0001              !
 ! R8    R(4,10)                 1.0819         -DE/DX =    0.0001              !
 ! R9    R(5,6)                  1.3933         -DE/DX =    0.0001              !
 ! R10   R(5,11)                 1.0833         -DE/DX =    0.0                 !
 ! R11   R(6,7)                  1.7374         -DE/DX =    0.0                 !
 ! A1    A(2,1,6)              125.2076         -DE/DX =    0.0002              !
 ! A2    A(1,2,3)              116.036          -DE/DX =   -0.0003              !
 ! A3    A(1,2,8)              122.8397         -DE/DX =    0.0001              !
 ! A4    A(3,2,8)              121.1243         -DE/DX =    0.0001              !
 ! A5    A(2,3,4)              121.2746         -DE/DX =    0.0001              !
 ! A6    A(2,3,9)              119.2459         -DE/DX =   -0.0001              !
 ! A7    A(4,3,9)              119.4795         -DE/DX =   -0.0001              !
 ! A8    A(3,4,5)              120.0654         -DE/DX =    0.0                 !
 ! A9    A(3,4,10)             119.6362         -DE/DX =    0.0                 !
 ! A10   A(5,4,10)             120.2984         -DE/DX =    0.0                 !
 ! A11   A(4,5,6)              119.6162         -DE/DX =   -0.0002              !
 ! A12   A(4,5,11)             120.65           -DE/DX =    0.0001              !
 ! A13   A(6,5,11)             119.7338         -DE/DX =    0.0001              !
 ! A14   A(1,6,5)              117.8002         -DE/DX =    0.0001              !
 ! A15   A(1,6,7)              121.1995         -DE/DX =   -0.0001              !
 ! A16   A(5,6,7)              121.0002         -DE/DX =    0.0                 !
 ! D1    D(6,1,2,3)              0.0            -DE/DX =    0.0                 !
 ! D2    D(6,1,2,8)            180.0            -DE/DX =    0.0                 !
 ! D3    D(2,1,6,5)              0.0            -DE/DX =    0.0                 !
 ! D4    D(2,1,6,7)            180.0            -DE/DX =    0.0                 !
 ! D5    D(1,2,3,4)              0.0            -DE/DX =    0.0                 !
 ! D6    D(1,2,3,9)            180.0            -DE/DX =    0.0                 !
 ! D7    D(8,2,3,4)            180.0            -DE/DX =    0.0                 !
 ! D8    D(8,2,3,9)              0.0            -DE/DX =    0.0                 !
 ! D9    D(2,3,4,5)              0.0            -DE/DX =    0.0                 !
 ! D10   D(2,3,4,10)           180.0            -DE/DX =    0.0                 !
 ! D11   D(9,3,4,5)            180.0            -DE/DX =    0.0                 !
 ! D12   D(9,3,4,10)             0.0            -DE/DX =    0.0                 !
 ! D13   D(3,4,5,6)              0.0            -DE/DX =    0.0                 !
 ! D14   D(3,4,5,11)           180.0            -DE/DX =    0.0                 !
 ! D15   D(10,4,5,6)           180.0            -DE/DX =    0.0                 !
 ! D16   D(10,4,5,11)            0.0            -DE/DX =    0.0                 !
 ! D17   D(4,5,6,1)              0.0            -DE/DX =    0.0                 !
 ! D18   D(4,5,6,7)            180.0            -DE/DX =    0.0                 !
 ! D19   D(11,5,6,1)           180.0            -DE/DX =    0.0                 !
 ! D20   D(11,5,6,7)             0.0            -DE/DX =    0.0                 !
 --------------------------------------------------------------------------------
 GradGradGradGradGradGradGradGradGradGradGradGradGradGradGradGradGradGrad


 ----------------------------------------------------------------------

 Electric dipole moment (input orientation):
 (Debye = 10**-18 statcoulomb cm , SI units = C m)
                  (au)            (Debye)         (10**-30 SI)
   Tot        0.326294D+00      0.829356D+00      0.276643D+01
   x          0.282352D+00      0.717666D+00      0.239388D+01
   y         -0.163540D+00     -0.415677D+00     -0.138655D+01
   z          0.000000D+00      0.000000D+00      0.000000D+00

 Dipole polarizability, Alpha (input orientation).
 (esu units = cm**3 , SI units = C**2 m**2 J**-1)
 Alpha(0;0):
               (au)            (10**-24 esu)      (10**-40 SI)
   iso        0.892222D+02      0.132214D+02      0.147108D+02
   aniso      0.733267D+02      0.108659D+02      0.120899D+02
   xx         0.118830D+03      0.176088D+02      0.195925D+02
   yx         0.233968D+02      0.346705D+01      0.385762D+01
   yy         0.986542D+02      0.146190D+02      0.162659D+02
   zx         0.000000D+00      0.000000D+00      0.000000D+00
   zy         0.000000D+00      0.000000D+00      0.000000D+00
   zz         0.501822D+02      0.743624D+01      0.827393D+01

 ----------------------------------------------------------------------

 Dipole orientation:
     6         -1.35728342         -2.34335084         -5.17656733
     6         -0.18467656         -0.31884422         -4.06666904
     6         -0.16744088         -0.28908681         -1.43009530
     6         -1.28484104         -2.21827901         -0.03865966
     6         -2.44791400         -4.22632534         -1.27151204
     6         -2.48699437         -4.29379763         -3.90310055
    17         -3.92215431         -6.77160233         -5.50879055
     1          0.68659964          1.18541479         -5.14625291
    17          1.28091061          2.21149313          0.14036034
     1         -1.24360582         -2.14708637          2.00404313
     1         -3.32362489         -5.73824085         -0.20487520

 Electric dipole moment (dipole orientation):
 (Debye = 10**-18 statcoulomb cm , SI units = C m)
                  (au)            (Debye)         (10**-30 SI)
   Tot        0.326294D+00      0.829356D+00      0.276643D+01
   x          0.000000D+00      0.000000D+00      0.000000D+00
   y          0.000000D+00      0.000000D+00      0.000000D+00
   z          0.326294D+00      0.829356D+00      0.276643D+01

 Dipole polarizability, Alpha (dipole orientation).
 (esu units = cm**3 , SI units = C**2 m**2 J**-1)
 Alpha(0;0):
               (au)            (10**-24 esu)      (10**-40 SI)
   iso        0.892222D+02      0.132214D+02      0.147108D+02
   aniso      0.733267D+02      0.108659D+02      0.120899D+02
   xx         0.687300D+02      0.101847D+02      0.113320D+02
   yx         0.320227D+02      0.474528D+01      0.527984D+01
   yy         0.105470D+03      0.156290D+02      0.173896D+02
   zx         0.102208D+02      0.151456D+01      0.168518D+01
   zy         0.176462D+02      0.261490D+01      0.290946D+01
   zz         0.934672D+02      0.138504D+02      0.154107D+02

 ----------------------------------------------------------------------
 1\1\GINC-SH02-01N47\Freq\UM062X\6-311++G(d,p)\C6H3Cl2(2)\JLAPIER\10-De
 c-2025\0\\#N Geom=AllCheck Guess=TCheck SCRF=Check GenChk UM062X/6-311
 ++G(d,p) Freq\\Neutral Radical (removed 2) 1_4\\0,2\C,-3.0886581356,0.
 1329111051,0.\C,-1.9599050475,0.9098602638,0.\C,-0.7434643541,0.226319
 9506,0.\C,-0.6976113388,-1.1636091649,0.\C,-1.8776215092,-1.8992373191
 ,0.\C,-3.1033391169,-1.2369770695,0.\Cl,-4.5980585082,-2.1223045155,0.
 \H,-1.9932004474,1.9922132933,0.\Cl,0.7421014555,1.1330445886,0.\H,0.2
 595884596,-1.6677130229,0.\H,-1.8526014575,-2.9822081095,0.\\Version=E
 S64L-G16RevB.01\State=2-A'\HF=-1150.7106654\S2=0.762674\S2-1=0.\S2A=0.
 750073\RMSD=6.812e-09\RMSF=1.356e-04\ZeroPoint=0.0690248\Thermal=0.075
 6691\Dipole=0.2823516,-0.1635398,0.\DipoleDeriv=-0.1601154,-0.0333985,
 0.,-0.0798971,-0.069971,0.,0.,0.,-0.049666,-0.2686878,-0.0727699,0.,-0
 .0443369,-0.0455397,0.,0.,0.,-0.0656337,0.9456585,0.5062169,0.,0.52324
 82,0.4264349,0.,0.,0.,-0.0286413,-0.1512446,-0.1670497,0.,-0.1668264,-
 0.1711319,0.,0.,0.,-0.108528,-0.0831791,-0.0465783,0.,-0.0794802,-0.01
 13135,0.,0.,0.,-0.1117351,0.8413746,0.5100498,0.,0.566888,0.3331936,0.
 ,0.,0.,0.0216271,-0.6307599,-0.3283639,0.,-0.3544886,-0.2802479,0.,0.,
 0.,-0.0454999,0.0987574,-0.0231177,0.,-0.014624,0.0426145,0.,0.,0.,0.1
 586068,-0.6701933,-0.3583429,0.,-0.3515014,-0.3018002,0.,0.,0.,-0.0605
 408,0.0062724,0.0223544,0.,0.0153417,0.0705922,0.,0.,0.,0.1499202,0.07
 21173,-0.0090002,0.,-0.0143233,0.0071688,0.,0.,0.,0.1400907\Polar=118.
 8302118,23.3968413,98.6542371,0.,0.,50.1822348\Quadrupole=-2.109793,3.
 6965719,-1.586779,-2.9355568,0.,0.\PG=CS [SG(C6H3Cl2)]\NImag=0\\0.4281
 9038,0.14475168,0.60476689,0.,0.,0.07445617,-0.27294148,-0.10801259,0.
 ,0.61725298,-0.14829092,-0.19149434,0.,0.03069968,0.75954013,0.,0.,-0.
 05091093,0.,0.,0.12206816,-0.06870880,-0.05026764,0.,-0.25041596,0.140
 17259,0.,0.55030638,0.02778529,0.07576279,0.,0.05383301,-0.17239105,0.
 ,-0.05159519,0.61629845,0.,0.,0.01451289,0.,0.,-0.06373954,0.,0.,0.121
 54107,-0.02009212,-0.03210821,0.,0.03188064,0.02689253,0.,-0.11647172,
 0.05841032,0.,0.74834865,-0.03213856,-0.06922168,0.,0.08513959,-0.0196
 3978,0.,-0.01801419,-0.32646187,0.,-0.03554119,0.68261575,0.,0.,-0.004
 51106,0.,0.,0.00847605,0.,0.,-0.06444767,0.,0.,0.13029068,0.03670165,0
 .09296333,0.,-0.07856873,-0.00030756,0.,0.04199917,-0.09188477,0.,-0.2
 8475266,-0.05793957,0.,0.65748385,0.02522815,-0.03244021,0.,-0.0030877
 9,0.00180304,0.,-0.02482610,-0.03074713,0.,-0.13714005,-0.19040027,0.,
 0.00741915,0.75355576,0.,0.,0.01415143,0.,0.,-0.00154093,0.,0.,0.00583
 168,0.,0.,-0.05944690,0.,0.,0.12902953,-0.08886032,-0.01195497,0.,0.04
 248914,-0.03139279,0.,-0.02197142,0.04220840,0.,-0.05908411,-0.0363560
 1,0.,-0.26253139,0.13804791,0.,0.53505977,0.01576912,-0.35108625,0.,-0
 .07768420,-0.02870789,0.,0.04068979,-0.06869493,0.,0.03104560,0.075044
 94,0.,0.04901504,-0.16916043,0.,-0.02437475,0.62126577,0.,0.,-0.057227
 28,0.,0.,0.00715626,0.,0.,-0.00650311,0.,0.,0.00744192,0.,0.,-0.064260
 61,0.,0.,0.11812915,-0.01067348,-0.01880502,0.,0.00023478,0.00118830,0
 .,0.00049219,-0.00066991,0.,-0.00087264,0.00585667,0.,-0.03752036,-0.0
 2524358,0.,-0.14296709,-0.05502118,0.,0.19317650,-0.03143712,-0.021321
 55,0.,0.00262736,-0.00340117,0.,-0.00031954,0.00171230,0.,0.00035950,-
 0.00115642,0.,0.00365896,0.00551219,0.,-0.06833468,-0.06962099,0.,0.09
 528874,0.08787222,0.,0.,0.00166903,0.,0.,0.00343570,0.,0.,0.00047171,0
 .,0.,0.00429654,0.,0.,0.00551909,0.,0.,-0.02150917,0.,0.,0.00961869,0.
 00391795,-0.02408533,0.,-0.05196473,0.00660390,0.,0.00243400,0.0273773
 8,0.,-0.00453824,0.00228271,0.,-0.00148010,0.00001303,0.,-0.00315967,-
 0.00360965,0.,-0.00030711,-0.00090763,0.,0.05374604,-0.00313296,-0.011
 99049,0.,0.01437144,-0.34508243,0.,-0.00239153,-0.01057673,0.,0.002532
 72,0.00069442,0.,-0.00023412,0.00063167,0.,-0.00084486,0.00007618,0.,0
 .00001858,-0.00009593,0.,-0.00941006,0.36591493,0.,0.,-0.00101230,0.,0
 .,-0.03393428,0.,0.,0.00514670,0.,0.,0.00534655,0.,0.,-0.00060595,0.,0
 .,0.00611987,0.,0.,-0.00027028,0.,0.,0.02204763,-0.00390112,0.00448358
 ,0.,-0.03851021,-0.02411411,0.,-0.13622379,-0.06056202,0.,-0.01356447,
 -0.01017117,0.,0.00146258,-0.00089863,0.,0.00201076,-0.00057882,0.,-0.
 00170839,-0.00108520,0.,0.00106601,-0.00084568,0.,0.18892873,-0.000115
 73,-0.00085194,0.,0.00256453,0.00397271,0.,-0.05921722,-0.07583574,0.,
 -0.03797118,-0.02014561,0.,0.00487427,-0.00327329,0.,-0.00091029,0.001
 68393,0.,-0.00111227,-0.00048202,0.,0.00039511,0.00089994,0.,0.0934592
 1,0.09376659,0.,0.,0.00427882,0.,0.,0.00497610,0.,0.,-0.02254581,0.,0.
 ,0.00452085,0.,0.,0.00431151,0.,0.,-0.00035365,0.,0.,-0.00048537,0.,0.
 ,-0.00263056,0.,0.,0.01044088,0.00028973,-0.00090361,0.,0.00142615,-0.
 00049809,0.,0.00166565,-0.00272409,0.,-0.28601512,0.12346073,0.,-0.016
 88439,0.01327085,0.,-0.00175381,-0.00280935,0.,-0.00112212,0.00004643,
 0.,0.00023417,-0.00009258,0.,0.00094351,-0.00068080,0.,0.30045616,-0.0
 0129004,-0.00109101,0.,-0.00031840,-0.00556299,0.,0.02791145,-0.009887
 96,0.,0.12086578,-0.12144213,0.,-0.01608723,0.01166001,0.,-0.00321176,
 -0.00054998,0.,-0.00103419,-0.00000474,0.,0.00132063,-0.00038480,0.,0.
 00041520,0.00070413,0.,-0.12898737,0.12597081,0.,0.,-0.00104201,0.,0.,
 0.00535840,0.,0.,0.00259156,0.,0.,-0.03546010,0.,0.,0.00304598,0.,0.,0
 .00722642,0.,0.,-0.00009119,0.,0.,0.00007659,0.,0.,-0.00260064,0.,0.,0
 .02513946,-0.00392238,0.00393878,0.,-0.00088258,-0.00095354,0.,-0.0031
 0570,-0.00217844,0.,0.00516180,-0.02657900,0.,-0.05590961,0.00721706,0
 .,0.00076813,0.02755839,0.,0.00126773,0.00010319,0.,0.00005168,0.00002
 905,0.,-0.00050360,-0.00128563,0.,0.00076009,0.00041595,0.,0.05631444,
 0.00287110,-0.00103222,0.,-0.00013264,0.00096377,0.,-0.00214243,0.0008
 2187,0.,0.00265418,-0.00988736,0.,0.00852249,-0.34714133,0.,-0.0028762
 0,-0.01025035,0.,-0.00046613,0.00098611,0.,0.00001992,-0.00008676,0.,-
 0.00010236,-0.00043869,0.,-0.00008211,0.00058866,0.,-0.00826581,0.3654
 7631,0.,0.,0.00563523,0.,0.,-0.00134499,0.,0.,0.00714052,0.,0.,0.00349
 314,0.,0.,-0.03603483,0.,0.,0.00378020,0.,0.,-0.00265475,0.,0.,-0.0002
 8397,0.,0.,0.00008787,0.,0.,-0.00424448,0.,0.,0.02442606\\-0.00007625,
 0.00033851,0.,0.00014670,-0.00048638,0.,-0.00000897,0.00026431,0.,-0.0
 0001768,-0.00016205,0.,-0.00000301,0.00023827,0.,-0.00006482,-0.000239
 07,0.,0.00006081,-0.00002697,0.,-0.00001403,-0.00000210,0.,0.00004262,
 0.00002862,0.,-0.00007224,0.00001083,0.,0.00000687,0.00003604,0.\\\@


 Until you make peace with who you are,
 you'll never be content with what you have.
                           -- Doris Mortman
 Job cpu time:       0 days  0 hours 38 minutes 44.6 seconds.
 Elapsed time:       0 days  0 hours  9 minutes 42.6 seconds.
 File lengths (MBytes):  RWF=    142 Int=      0 D2E=      0 Chk=     34 Scr=      1
 Normal termination of Gaussian 16 at Wed Dec 10 11:34:46 2025.
