 Entering Gaussian System, Link 0=g16
 Initial command:
 /share/software/user/restricted/gaussian/g16.B01/l1.exe "/home/users/jlapier/Chloroaromatics/Gau-30166.inp" -scrdir="/home/users/jlapier/Chloroaromatics/"
 Entering Link 1 = /share/software/user/restricted/gaussian/g16.B01/l1.exe PID=     30167.
  
 Copyright (c) 1988-2017, Gaussian, Inc.  All Rights Reserved.
  
 This is part of the Gaussian(R) 16 program.  It is based on
 the Gaussian(R) 09 system (copyright 2009, Gaussian, Inc.),
 the Gaussian(R) 03 system (copyright 2003, Gaussian, Inc.),
 the Gaussian(R) 98 system (copyright 1998, Gaussian, Inc.),
 the Gaussian(R) 94 system (copyright 1995, Gaussian, Inc.),
 the Gaussian 92(TM) system (copyright 1992, Gaussian, Inc.),
 the Gaussian 90(TM) system (copyright 1990, Gaussian, Inc.),
 the Gaussian 88(TM) system (copyright 1988, Gaussian, Inc.),
 the Gaussian 86(TM) system (copyright 1986, Carnegie Mellon
 University), and the Gaussian 82(TM) system (copyright 1983,
 Carnegie Mellon University). Gaussian is a federally registered
 trademark of Gaussian, Inc.
  
 This software contains proprietary and confidential information,
 including trade secrets, belonging to Gaussian, Inc.
  
 This software is provided under written license and may be
 used, copied, transmitted, or stored only in accord with that
 written license.
  
 The following legend is applicable only to US Government
 contracts under FAR:
  
                    RESTRICTED RIGHTS LEGEND
  
 Use, reproduction and disclosure by the US Government is
 subject to restrictions as set forth in subparagraphs (a)
 and (c) of the Commercial Computer Software - Restricted
 Rights clause in FAR 52.227-19.
  
 Gaussian, Inc.
 340 Quinnipiac St., Bldg. 40, Wallingford CT 06492
  
  
 ---------------------------------------------------------------
 Warning -- This program may not be used in any manner that
 competes with the business of Gaussian, Inc. or will provide
 assistance to any competitor of Gaussian, Inc.  The licensee
 of this program is prohibited from giving any competitor of
 Gaussian, Inc. access to this program.  By using this program,
 the user acknowledges that Gaussian, Inc. is engaged in the
 business of creating and licensing software in the field of
 computational chemistry and represents and warrants to the
 licensee that it is not a competitor of Gaussian, Inc. and that
 it will not use this program in any manner prohibited above.
 ---------------------------------------------------------------
  

 Cite this work as:
 Gaussian 16, Revision B.01,
 M. J. Frisch, G. W. Trucks, H. B. Schlegel, G. E. Scuseria, 
 M. A. Robb, J. R. Cheeseman, G. Scalmani, V. Barone, 
 G. A. Petersson, H. Nakatsuji, X. Li, M. Caricato, A. V. Marenich, 
 J. Bloino, B. G. Janesko, R. Gomperts, B. Mennucci, H. P. Hratchian, 
 J. V. Ortiz, A. F. Izmaylov, J. L. Sonnenberg, D. Williams-Young, 
 F. Ding, F. Lipparini, F. Egidi, J. Goings, B. Peng, A. Petrone, 
 T. Henderson, D. Ranasinghe, V. G. Zakrzewski, J. Gao, N. Rega, 
 G. Zheng, W. Liang, M. Hada, M. Ehara, K. Toyota, R. Fukuda, 
 J. Hasegawa, M. Ishida, T. Nakajima, Y. Honda, O. Kitao, H. Nakai, 
 T. Vreven, K. Throssell, J. A. Montgomery, Jr., J. E. Peralta, 
 F. Ogliaro, M. J. Bearpark, J. J. Heyd, E. N. Brothers, K. N. Kudin, 
 V. N. Staroverov, T. A. Keith, R. Kobayashi, J. Normand, 
 K. Raghavachari, A. P. Rendell, J. C. Burant, S. S. Iyengar, 
 J. Tomasi, M. Cossi, J. M. Millam, M. Klene, C. Adamo, R. Cammi, 
 J. W. Ochterski, R. L. Martin, K. Morokuma, O. Farkas, 
 J. B. Foresman, and D. J. Fox, Gaussian, Inc., Wallingford CT, 2016.
 
 ******************************************
 Gaussian 16:  ES64L-G16RevB.01 20-Dec-2017
                 9-Dec-2025 
 ******************************************
 %mem=8GB
 %nprocshare=4
 Will use up to    4 processors via shared memory.
 %oldchk=geometry_chks/1245ClBzAnionRadical.chk
 %chk=frequency_chks/1245ClBzAnionRadical_Freq.chk
 Copying data from "geometry_chks/1245ClBzAnionRadical.chk" to current chk file "frequency_chks/1245ClBzAnionRadical_Freq.chk"
 IOpt=  2 FromEx=T IUOpen= 4 IOptOp= 5 NList=   0 IFRang= 0 IUIn= 4 IUOut= 2.
 -------------------------------------------------------
 # opt freq 6-311++g(d,p) guess=read geom=allcheck m062x
 -------------------------------------------------------
 1/18=20,19=15,26=3,29=7,38=1/1,3;
 2/9=110,12=2,40=1/2;
 3/5=4,6=6,7=1111,11=2,14=-4,25=1,30=1,71=1,74=-55,116=-2/1,2,3;
 4/5=1/1;
 5/5=2,38=6/2;
 6/7=2,8=2,9=2,10=2,28=1/1;
 7//1,2,3,16;
 1/18=20,19=15,26=3/3(2);
 2/9=110/2;
 99//99;
 2/9=110/2;
 3/5=4,6=6,7=1111,11=2,14=-2,25=1,30=1,71=1,74=-55/1,2,3;
 4/5=5,16=3,69=1/1;
 5/5=2,38=5/2;
 7//1,2,3,16;
 1/18=20,19=15,26=3/3(-5);
 2/9=110/2;
 6/7=2,8=2,9=2,10=2,19=2,28=1/1;
 99/9=1/99;
 Structure from the checkpoint file:  "frequency_chks/1245ClBzAnionRadical_Freq.chk"
 -------------------------------------
 4-Chloro-Benzene Anion Radical (1245)
 -------------------------------------
 Charge = -1 Multiplicity = 2
 Redundant internal coordinates found in file.  (old form).
 C,0,-3.1987068758,0.2095027473,0.
 C,0,-2.0114817133,0.934963891,0.
 C,0,-0.7862245145,0.2757737562,0.
 C,0,-0.7469773847,-1.1491882218,0.
 C,0,-1.934304322,-1.8744795271,0.
 C,0,-3.1596568469,-1.2154662042,0.
 Cl,0,-4.6039936673,-2.1320164307,0.
 Cl,0,-4.6910520624,1.045371056,0.
 H,0,-2.0416985149,2.034921876,0.
 Cl,0,0.6579794273,1.1923083154,0.
 Cl,0,0.7455012696,-1.9850589895,0.
 H,0,-1.9040847953,-2.9744622685,0.
 Recover connectivity data from disk.

 GradGradGradGradGradGradGradGradGradGradGradGradGradGradGradGradGradGrad
 Berny optimization.
 Initialization pass.
                           ----------------------------
                           !    Initial Parameters    !
                           ! (Angstroms and Degrees)  !
 --------------------------                            --------------------------
 ! Name  Definition              Value          Derivative Info.                !
 --------------------------------------------------------------------------------
 ! R1    R(1,2)                  1.3913         estimate D2E/DX2                !
 ! R2    R(1,6)                  1.4255         estimate D2E/DX2                !
 ! R3    R(1,8)                  1.7105         estimate D2E/DX2                !
 ! R4    R(2,3)                  1.3913         estimate D2E/DX2                !
 ! R5    R(2,9)                  1.1004         estimate D2E/DX2                !
 ! R6    R(3,4)                  1.4255         estimate D2E/DX2                !
 ! R7    R(3,10)                 1.7105         estimate D2E/DX2                !
 ! R8    R(4,5)                  1.3913         estimate D2E/DX2                !
 ! R9    R(4,11)                 1.7106         estimate D2E/DX2                !
 ! R10   R(5,6)                  1.3913         estimate D2E/DX2                !
 ! R11   R(5,12)                 1.1004         estimate D2E/DX2                !
 ! R12   R(6,7)                  1.7106         estimate D2E/DX2                !
 ! A1    A(2,1,6)              119.8575         estimate D2E/DX2                !
 ! A2    A(2,1,8)              119.3194         estimate D2E/DX2                !
 ! A3    A(6,1,8)              120.8231         estimate D2E/DX2                !
 ! A4    A(1,2,3)              120.2924         estimate D2E/DX2                !
 ! A5    A(1,2,9)              119.8537         estimate D2E/DX2                !
 ! A6    A(3,2,9)              119.8539         estimate D2E/DX2                !
 ! A7    A(2,3,4)              119.858          estimate D2E/DX2                !
 ! A8    A(2,3,10)             119.3193         estimate D2E/DX2                !
 ! A9    A(4,3,10)             120.8227         estimate D2E/DX2                !
 ! A10   A(3,4,5)              119.8414         estimate D2E/DX2                !
 ! A11   A(3,4,11)             120.8289         estimate D2E/DX2                !
 ! A12   A(5,4,11)             119.3296         estimate D2E/DX2                !
 ! A13   A(4,5,6)              120.3088         estimate D2E/DX2                !
 ! A14   A(4,5,12)             119.8454         estimate D2E/DX2                !
 ! A15   A(6,5,12)             119.8457         estimate D2E/DX2                !
 ! A16   A(1,6,5)              119.8418         estimate D2E/DX2                !
 ! A17   A(1,6,7)              120.8287         estimate D2E/DX2                !
 ! A18   A(5,6,7)              119.3295         estimate D2E/DX2                !
 ! D1    D(6,1,2,3)              0.0            estimate D2E/DX2                !
 ! D2    D(6,1,2,9)            180.0            estimate D2E/DX2                !
 ! D3    D(8,1,2,3)            180.0            estimate D2E/DX2                !
 ! D4    D(8,1,2,9)              0.0            estimate D2E/DX2                !
 ! D5    D(2,1,6,5)              0.0            estimate D2E/DX2                !
 ! D6    D(2,1,6,7)            180.0            estimate D2E/DX2                !
 ! D7    D(8,1,6,5)            180.0            estimate D2E/DX2                !
 ! D8    D(8,1,6,7)              0.0            estimate D2E/DX2                !
 ! D9    D(1,2,3,4)              0.0            estimate D2E/DX2                !
 ! D10   D(1,2,3,10)           180.0            estimate D2E/DX2                !
 ! D11   D(9,2,3,4)            180.0            estimate D2E/DX2                !
 ! D12   D(9,2,3,10)             0.0            estimate D2E/DX2                !
 ! D13   D(2,3,4,5)              0.0            estimate D2E/DX2                !
 ! D14   D(2,3,4,11)           180.0            estimate D2E/DX2                !
 ! D15   D(10,3,4,5)           180.0            estimate D2E/DX2                !
 ! D16   D(10,3,4,11)            0.0            estimate D2E/DX2                !
 ! D17   D(3,4,5,6)              0.0            estimate D2E/DX2                !
 ! D18   D(3,4,5,12)           180.0            estimate D2E/DX2                !
 ! D19   D(11,4,5,6)           180.0            estimate D2E/DX2                !
 ! D20   D(11,4,5,12)            0.0            estimate D2E/DX2                !
 ! D21   D(4,5,6,1)              0.0            estimate D2E/DX2                !
 ! D22   D(4,5,6,7)            180.0            estimate D2E/DX2                !
 ! D23   D(12,5,6,1)           180.0            estimate D2E/DX2                !
 ! D24   D(12,5,6,7)             0.0            estimate D2E/DX2                !
 --------------------------------------------------------------------------------
 Trust Radius=3.00D-01 FncErr=1.00D-07 GrdErr=1.00D-06 EigMax=2.50D+02 EigMin=1.00D-04
 Number of steps in this run=     64 maximum allowed number of steps=    100.
 GradGradGradGradGradGradGradGradGradGradGradGradGradGradGradGradGradGrad

                          Input orientation:                          
 ---------------------------------------------------------------------
 Center     Atomic      Atomic             Coordinates (Angstroms)
 Number     Number       Type             X           Y           Z
 ---------------------------------------------------------------------
      1          6           0       -3.198707    0.209503   -0.000000
      2          6           0       -2.011482    0.934964   -0.000000
      3          6           0       -0.786225    0.275774    0.000000
      4          6           0       -0.746977   -1.149188    0.000000
      5          6           0       -1.934304   -1.874480    0.000000
      6          6           0       -3.159657   -1.215466   -0.000000
      7         17           0       -4.603994   -2.132016   -0.000000
      8         17           0       -4.691052    1.045371   -0.000000
      9          1           0       -2.041699    2.034922   -0.000000
     10         17           0        0.657979    1.192308    0.000000
     11         17           0        0.745501   -1.985059    0.000000
     12          1           0       -1.904085   -2.974462    0.000000
 ---------------------------------------------------------------------
                    Distance matrix (angstroms):
                    1          2          3          4          5
     1  C    0.000000
     2  C    1.391329   0.000000
     3  C    2.413392   1.391326   0.000000
     4  C    2.803037   2.437757   1.425502   0.000000
     5  C    2.437559   2.810503   2.437555   1.391328   0.000000
     6  C    1.425504   2.437756   2.803030   2.413590   1.391326
     7  Cl   2.730850   4.015904   4.513625   3.980267   2.682082
     8  Cl   1.710488   2.681844   3.979944   4.513515   4.015618
     9  H    2.161209   1.100373   2.161207   3.437275   3.910876
    10  Cl   3.979942   2.681837   1.710485   2.730661   4.015610
    11  Cl   4.513633   4.015904   2.730851   1.710606   2.682086
    12  H    3.437103   3.910901   3.437098   2.161139   1.100398
                    6          7          8          9         10
     6  C    0.000000
     7  Cl   1.710606   0.000000
     8  Cl   2.730670   3.178580   0.000000
     9  H    3.437274   4.891700   2.828124   0.000000
    10  Cl   4.513505   6.224106   5.351049   2.828119   0.000000
    11  Cl   3.980268   5.351513   6.224116   4.891700   3.178572
    12  H    2.161141   2.828290   4.891446   5.011274   4.891436
                   11         12
    11  Cl   0.000000
    12  H    2.828290   0.000000
 Stoichiometry    C6H2Cl4(1-,2)
 Framework group  CS[SG(C6H2Cl4)]
 Deg. of freedom    21
 Full point group                 CS      NOp   2
 Largest Abelian subgroup         CS      NOp   2
 Largest concise Abelian subgroup C1      NOp   1
                         Standard orientation:                         
 ---------------------------------------------------------------------
 Center     Atomic      Atomic             Coordinates (Angstroms)
 Number     Number       Type             X           Y           Z
 ---------------------------------------------------------------------
      1          6           0       -1.227377    0.676514    0.000000
      2          6           0       -1.210019   -0.714707   -0.000000
      3          6           0        0.000000   -1.401468   -0.000000
      4          6           0        1.227440   -0.676591   -0.000000
      5          6           0        1.209885    0.714626    0.000000
      6          6           0       -0.000035    1.401562    0.000000
      7         17           0        0.007620    3.112151    0.000000
      8         17           0       -2.729091    1.495430    0.000000
      9          1           0       -2.157464   -1.274322   -0.000000
     10         17           0       -0.007712   -3.111936   -0.000000
     11         17           0        2.729228   -1.495619   -0.000000
     12          1           0        2.157352    1.274252    0.000000
 ---------------------------------------------------------------------
 Rotational constants (GHZ):           1.1545308           0.4717548           0.3349076
 Standard basis: 6-311++G(d,p) (5D, 7F)
 There are   206 symmetry adapted cartesian basis functions of A'  symmetry.
 There are    70 symmetry adapted cartesian basis functions of A"  symmetry.
 There are   196 symmetry adapted basis functions of A'  symmetry.
 There are    70 symmetry adapted basis functions of A"  symmetry.
   266 basis functions,   446 primitive gaussians,   276 cartesian basis functions
    54 alpha electrons       53 beta electrons
       nuclear repulsion energy       830.2221385344 Hartrees.
 NAtoms=   12 NActive=   12 NUniq=   12 SFac= 1.00D+00 NAtFMM=   60 NAOKFM=F Big=F
 Integral buffers will be    131072 words long.
 Raffenetti 2 integral format.
 Two-electron integral symmetry is turned on.
 One-electron integrals computed using PRISM.
 NBasis=   266 RedAO= T EigKep=  1.47D-06  NBF=   196    70
 NBsUse=   265 1.00D-06 EigRej=  5.50D-07 NBFU=   195    70
 Initial guess from the checkpoint file:  "frequency_chks/1245ClBzAnionRadical_Freq.chk"
 B after Tr=    -0.000000   -0.000000    0.000000
         Rot=    1.000000    0.000000   -0.000000   -0.000000 Ang=   0.00 deg.
 Initial guess orbital symmetries:
 Alpha Orbitals:
       Occupied  (A') (A') (A') (A') (A') (A') (A') (A') (A') (A')
                 (A') (A') (A') (A") (A') (A") (A') (A') (A") (A")
                 (A') (A') (A') (A') (A") (A") (A") (A") (A") (A')
                 (A') (A') (A") (A') (A') (A') (A') (A') (A') (A')
                 (A') (A') (A') (A') (A') (A') (A') (A') (A') (A')
                 (A') (A') (A') (A')
       Virtual   (A') (A') (A') (A') (A') (A') (A') (A') (A') (A')
                 (A') (A') (A') (A') (A') (A') (A') (A') (A') (A')
                 (A') (A') (A') (A') (A') (A') (A') (A') (A') (A')
                 (A') (A') (A') (A') (A') (A') (A') (A') (A') (A')
                 (A') (A') (A') (A') (A') (A') (A') (A') (A') (A')
                 (A') (A') (A') (A') (A') (A') (A') (A') (A') (A')
                 (A') (A') (A') (A') (A') (A') (A') (A') (A') (A')
                 (A') (A') (A') (A') (A') (A') (A') (A') (A') (A')
                 (A') (A') (A') (A') (A') (A') (A') (A') (A') (A')
                 (A') (A') (A') (A') (A') (A') (A') (A') (A') (A')
                 (A') (A') (A') (A') (A') (A') (A') (A') (A') (A')
                 (A') (A') (A') (A') (A') (A') (A') (A') (A') (A')
                 (A') (A') (A') (A') (A') (A') (A') (A') (A') (A')
                 (A') (A') (A') (A') (A') (A') (A') (A') (A') (A')
                 (A') (A') (A') (A') (A') (A') (A') (A') (A') (A')
                 (A') (A") (A") (A") (A") (A") (A") (A") (A") (A")
                 (A") (A") (A") (A") (A") (A") (A") (A") (A") (A")
                 (A") (A") (A") (A") (A") (A") (A") (A") (A") (A")
                 (A") (A") (A") (A") (A") (A") (A") (A") (A") (A")
                 (A") (A") (A") (A") (A") (A") (A") (A") (A") (A")
                 (A") (A") (A") (A") (A") (A") (A") (A") (A") (A")
                 (A")
 Beta  Orbitals:
       Occupied  (A') (A') (A') (A') (A') (A') (A') (A') (A') (A')
                 (A') (A') (A') (A') (A") (A") (A') (A') (A") (A")
                 (A') (A') (A') (A') (A") (A") (A") (A") (A") (A')
                 (A') (A') (A') (A") (A') (A') (A') (A') (A') (A')
                 (A') (A') (A') (A') (A') (A') (A') (A') (A') (A')
                 (A') (A') (A')
       Virtual   (A') (A') (A') (A') (A') (A') (A') (A') (A') (A')
                 (A') (A') (A') (A') (A') (A') (A') (A') (A') (A')
                 (A') (A') (A') (A') (A') (A') (A') (A') (A') (A')
                 (A') (A') (A') (A') (A') (A') (A') (A') (A') (A')
                 (A') (A') (A') (A') (A') (A') (A') (A') (A') (A')
                 (A') (A') (A') (A') (A') (A') (A') (A') (A') (A')
                 (A') (A') (A') (A') (A') (A') (A') (A') (A') (A')
                 (A') (A') (A') (A') (A') (A') (A') (A') (A') (A')
                 (A') (A') (A') (A') (A') (A') (A') (A') (A') (A')
                 (A') (A') (A') (A') (A') (A') (A') (A') (A') (A')
                 (A') (A') (A') (A') (A') (A') (A') (A') (A') (A')
                 (A') (A') (A') (A') (A') (A') (A') (A') (A') (A')
                 (A') (A') (A') (A') (A') (A') (A') (A') (A') (A')
                 (A') (A') (A') (A') (A') (A') (A') (A') (A') (A')
                 (A') (A') (A') (A') (A') (A') (A') (A') (A') (A')
                 (A') (A') (A") (A") (A") (A") (A") (A") (A") (A")
                 (A") (A") (A") (A") (A") (A") (A") (A") (A") (A")
                 (A") (A") (A") (A") (A") (A") (A") (A") (A") (A")
                 (A") (A") (A") (A") (A") (A") (A") (A") (A") (A")
                 (A") (A") (A") (A") (A") (A") (A") (A") (A") (A")
                 (A") (A") (A") (A") (A") (A") (A") (A") (A") (A")
                 (A") (A")
 Initial guess <Sx>= 0.0000 <Sy>= 0.0000 <Sz>= 0.5000 <S**2>= 0.7500 S= 0.5000
 Keep R1 and R2 ints in memory in symmetry-blocked form, NReq=994759113.
 Requested convergence on RMS density matrix=1.00D-08 within 128 cycles.
 Requested convergence on MAX density matrix=1.00D-06.
 Requested convergence on             energy=1.00D-06.
 No special actions if energy rises.
 EnCoef did     2 forward-backward iterations
 EnCoef did     2 forward-backward iterations
 SCF Done:  E(UM062X) =  -2070.58207166     A.U. after   41 cycles
            NFock= 41  Conv=0.98D-08     -V/T= 2.0021
 <Sx>= 0.0000 <Sy>= 0.0000 <Sz>= 0.5000 <S**2>= 0.7606 S= 0.5053
 <L.S>=  0.00000000000    
 Annihilation of the first spin contaminant:
 S**2 before annihilation     0.7606,   after     0.7501

 **********************************************************************

            Population analysis using the SCF Density.

 **********************************************************************

 Orbital symmetries:
 Alpha Orbitals:
       Occupied  (A') (A') (A') (A') (A') (A') (A') (A') (A') (A')
                 (A') (A') (A') (A') (A') (A') (A') (A') (A") (A")
                 (A") (A") (A') (A') (A') (A') (A') (A') (A') (A')
                 (A') (A') (A') (A') (A') (A') (A') (A') (A') (A')
                 (A") (A") (A') (A') (A") (A") (A') (A') (A') (A')
                 (A") (A") (A") (A")
       Virtual   (A') (A') (A') (A') (A') (A") (A') (A') (A") (A")
                 (A") (A') (A') (A') (A') (A") (A') (A') (A') (A")
                 (A') (A') (A") (A') (A") (A') (A') (A') (A") (A')
                 (A') (A") (A") (A") (A') (A') (A') (A') (A') (A')
                 (A') (A') (A') (A') (A') (A') (A') (A') (A') (A')
                 (A') (A') (A') (A') (A') (A") (A') (A") (A') (A")
                 (A') (A') (A") (A') (A') (A') (A') (A") (A') (A")
                 (A") (A') (A") (A") (A') (A") (A') (A') (A') (A')
                 (A') (A") (A') (A') (A") (A') (A') (A') (A') (A')
                 (A") (A') (A") (A") (A") (A') (A") (A') (A') (A")
                 (A') (A') (A') (A') (A') (A') (A") (A') (A') (A')
                 (A") (A') (A') (A') (A") (A') (A') (A') (A") (A")
                 (A') (A') (A") (A') (A') (A') (A") (A') (A') (A")
                 (A') (A') (A') (A") (A') (A") (A") (A') (A") (A')
                 (A') (A") (A') (A') (A') (A') (A") (A") (A") (A")
                 (A") (A') (A') (A') (A') (A') (A') (A') (A') (A')
                 (A') (A') (A") (A') (A') (A') (A') (A") (A") (A")
                 (A") (A') (A") (A') (A') (A') (A') (A') (A') (A')
                 (A') (A') (A') (A') (A') (A') (A') (A') (A') (A')
                 (A') (A') (A') (A') (A') (A") (A") (A") (A") (A')
                 (A') (A') (A') (A') (A') (A') (A') (A') (A') (A')
                 (A')
 Beta  Orbitals:
       Occupied  (A') (A') (A') (A') (A') (A') (A') (A') (A') (A')
                 (A') (A') (A') (A') (A') (A') (A') (A') (A') (A')
                 (A') (A') (A") (A") (A") (A") (A') (A') (A') (A')
                 (A') (A') (A') (A') (A') (A') (A') (A') (A') (A')
                 (A") (A') (A') (A") (A") (A") (A') (A') (A') (A')
                 (A") (A") (A")
       Virtual   (A') (A') (A') (A') (A") (A') (A') (A") (A') (A")
                 (A") (A") (A') (A') (A') (A') (A") (A') (A') (A")
                 (A') (A') (A') (A') (A") (A") (A') (A') (A") (A')
                 (A') (A') (A") (A") (A') (A') (A") (A') (A') (A')
                 (A') (A') (A') (A') (A') (A') (A') (A') (A') (A')
                 (A') (A') (A') (A') (A') (A') (A") (A') (A") (A')
                 (A") (A') (A') (A") (A') (A') (A') (A') (A") (A')
                 (A") (A") (A') (A") (A') (A") (A') (A') (A") (A')
                 (A') (A') (A") (A') (A') (A") (A') (A') (A') (A')
                 (A') (A") (A') (A") (A") (A") (A') (A") (A') (A")
                 (A') (A') (A') (A') (A') (A') (A') (A') (A") (A')
                 (A') (A") (A') (A') (A') (A") (A') (A') (A') (A")
                 (A') (A") (A') (A") (A') (A') (A') (A") (A') (A')
                 (A") (A') (A') (A') (A") (A') (A") (A") (A') (A")
                 (A') (A') (A") (A') (A') (A') (A') (A") (A") (A")
                 (A") (A") (A') (A') (A') (A') (A') (A') (A') (A')
                 (A') (A') (A') (A') (A") (A') (A') (A') (A") (A")
                 (A") (A") (A') (A") (A') (A') (A') (A') (A') (A')
                 (A') (A') (A') (A') (A') (A') (A') (A') (A') (A')
                 (A') (A') (A') (A') (A') (A') (A") (A") (A") (A")
                 (A') (A') (A') (A') (A') (A') (A') (A') (A') (A')
                 (A') (A')
 The electronic state is 2-A".
 Alpha  occ. eigenvalues -- -102.53433-102.53431-102.53429-102.53427 -10.43233
 Alpha  occ. eigenvalues --  -10.43231 -10.43176 -10.43176 -10.41367 -10.41365
 Alpha  occ. eigenvalues --   -9.67742  -9.67740  -9.67738  -9.67736  -7.40214
 Alpha  occ. eigenvalues --   -7.40213  -7.40211  -7.40209  -7.39631  -7.39629
 Alpha  occ. eigenvalues --   -7.39627  -7.39626  -7.39614  -7.39612  -7.39610
 Alpha  occ. eigenvalues --   -7.39608  -0.87764  -0.85068  -0.82080  -0.81102
 Alpha  occ. eigenvalues --   -0.75415  -0.68163  -0.63743  -0.55299  -0.51757
 Alpha  occ. eigenvalues --   -0.43388  -0.42355  -0.39638  -0.35772  -0.35455
 Alpha  occ. eigenvalues --   -0.35253  -0.31011  -0.30975  -0.30862  -0.28295
 Alpha  occ. eigenvalues --   -0.27033  -0.24785  -0.24077  -0.23586  -0.22752
 Alpha  occ. eigenvalues --   -0.22380  -0.16514  -0.13961   0.03355
 Alpha virt. eigenvalues --    0.10823   0.11217   0.12929   0.13715   0.14484
 Alpha virt. eigenvalues --    0.14555   0.15858   0.17950   0.18125   0.18402
 Alpha virt. eigenvalues --    0.18920   0.19731   0.19840   0.19848   0.21513
 Alpha virt. eigenvalues --    0.21519   0.21760   0.22593   0.23518   0.23590
 Alpha virt. eigenvalues --    0.24145   0.24974   0.25398   0.25493   0.25808
 Alpha virt. eigenvalues --    0.26712   0.27259   0.28564   0.28792   0.29729
 Alpha virt. eigenvalues --    0.30023   0.30455   0.32241   0.32563   0.32576
 Alpha virt. eigenvalues --    0.33097   0.34763   0.35449   0.35873   0.36431
 Alpha virt. eigenvalues --    0.36575   0.38004   0.38460   0.38592   0.40506
 Alpha virt. eigenvalues --    0.41232   0.41610   0.42387   0.43300   0.46710
 Alpha virt. eigenvalues --    0.46940   0.47886   0.48018   0.57035   0.58180
 Alpha virt. eigenvalues --    0.58911   0.59733   0.60016   0.60820   0.62523
 Alpha virt. eigenvalues --    0.63545   0.63844   0.63851   0.64288   0.65891
 Alpha virt. eigenvalues --    0.66844   0.69752   0.71222   0.73995   0.76518
 Alpha virt. eigenvalues --    0.77663   0.77885   0.77958   0.80311   0.81234
 Alpha virt. eigenvalues --    0.84425   0.84503   0.84916   0.87994   0.88105
 Alpha virt. eigenvalues --    0.91014   0.94835   0.95987   0.99859   1.01357
 Alpha virt. eigenvalues --    1.03197   1.03531   1.04141   1.04872   1.05648
 Alpha virt. eigenvalues --    1.06242   1.06572   1.06588   1.07269   1.08054
 Alpha virt. eigenvalues --    1.09928   1.10719   1.11721   1.12200   1.12231
 Alpha virt. eigenvalues --    1.13393   1.14601   1.14630   1.15176   1.18324
 Alpha virt. eigenvalues --    1.19412   1.19699   1.19970   1.26751   1.28285
 Alpha virt. eigenvalues --    1.28662   1.33547   1.39208   1.41477   1.43316
 Alpha virt. eigenvalues --    1.43417   1.45876   1.46871   1.48833   1.52191
 Alpha virt. eigenvalues --    1.52646   1.53448   1.54994   1.66692   1.66738
 Alpha virt. eigenvalues --    1.73979   1.76417   1.77483   1.84449   1.85211
 Alpha virt. eigenvalues --    1.93491   1.93854   1.95825   1.97533   2.05725
 Alpha virt. eigenvalues --    2.06759   2.09626   2.12308   2.16633   2.17592
 Alpha virt. eigenvalues --    2.21299   2.26830   2.31456   2.33042   2.40160
 Alpha virt. eigenvalues --    2.40384   2.42445   2.42842   2.46613   2.47816
 Alpha virt. eigenvalues --    2.49691   2.51686   2.54634   2.58715   2.60621
 Alpha virt. eigenvalues --    2.67153   2.67459   2.68797   2.72719   2.76004
 Alpha virt. eigenvalues --    2.77155   2.82156   2.85067   2.85961   2.90646
 Alpha virt. eigenvalues --    2.92197   2.96757   2.99712   3.00246   3.09044
 Alpha virt. eigenvalues --    3.10384   3.25230   3.28464   3.33150   3.38351
 Alpha virt. eigenvalues --    3.42031   3.50921   3.54386   3.70229   3.77940
 Alpha virt. eigenvalues --    4.01289   4.01357   4.10961   4.31318   4.98420
 Alpha virt. eigenvalues --   10.07348  10.13556  10.15419  10.16450  23.62708
 Alpha virt. eigenvalues --   24.06810  24.08926  24.16657  24.28566  24.33234
 Alpha virt. eigenvalues --   26.03306  26.05182  26.11473  26.13606  26.32177
 Alpha virt. eigenvalues --   26.35014  26.36214  26.56937  26.73668  26.79136
 Alpha virt. eigenvalues --   27.03766  27.07296 216.16929 216.23919 216.26059
 Alpha virt. eigenvalues --  216.27438
  Beta  occ. eigenvalues -- -102.53422-102.53420-102.53418-102.53416 -10.42988
  Beta  occ. eigenvalues --  -10.42987 -10.42926 -10.42923 -10.41446 -10.41445
  Beta  occ. eigenvalues --   -9.67739  -9.67737  -9.67735  -9.67733  -7.40248
  Beta  occ. eigenvalues --   -7.40246  -7.40244  -7.40242  -7.39611  -7.39610
  Beta  occ. eigenvalues --   -7.39608  -7.39606  -7.39561  -7.39560  -7.39558
  Beta  occ. eigenvalues --   -7.39556  -0.87186  -0.84624  -0.81738  -0.80800
  Beta  occ. eigenvalues --   -0.75093  -0.67881  -0.62904  -0.54927  -0.50733
  Beta  occ. eigenvalues --   -0.42956  -0.41738  -0.39262  -0.35586  -0.34917
  Beta  occ. eigenvalues --   -0.33923  -0.30671  -0.30630  -0.29998  -0.27467
  Beta  occ. eigenvalues --   -0.26310  -0.24622  -0.23963  -0.23545  -0.22671
  Beta  occ. eigenvalues --   -0.21665  -0.15132  -0.11068
  Beta virt. eigenvalues --    0.11010   0.11398   0.13206   0.13945   0.14738
  Beta virt. eigenvalues --    0.14840   0.16192   0.17465   0.17894   0.18369
  Beta virt. eigenvalues --    0.18385   0.18966   0.19851   0.19922   0.20164
  Beta virt. eigenvalues --    0.21669   0.21731   0.21804   0.22854   0.23616
  Beta virt. eigenvalues --    0.23739   0.24349   0.25275   0.25711   0.25725
  Beta virt. eigenvalues --    0.25931   0.26944   0.27735   0.28733   0.29092
  Beta virt. eigenvalues --    0.29847   0.30412   0.30644   0.32698   0.33092
  Beta virt. eigenvalues --    0.33170   0.34665   0.34873   0.35577   0.35811
  Beta virt. eigenvalues --    0.36407   0.36686   0.38011   0.38299   0.38859
  Beta virt. eigenvalues --    0.40550   0.41371   0.41827   0.42695   0.42974
  Beta virt. eigenvalues --    0.46963   0.47408   0.48281   0.48801   0.57221
  Beta virt. eigenvalues --    0.58409   0.59133   0.60107   0.60211   0.60998
  Beta virt. eigenvalues --    0.62860   0.63727   0.63939   0.64092   0.64414
  Beta virt. eigenvalues --    0.65997   0.67065   0.69901   0.71890   0.74443
  Beta virt. eigenvalues --    0.77026   0.78305   0.78501   0.78847   0.82069
  Beta virt. eigenvalues --    0.82133   0.84862   0.85141   0.85392   0.88059
  Beta virt. eigenvalues --    0.88850   0.91303   0.95361   0.96344   1.00222
  Beta virt. eigenvalues --    1.01842   1.03621   1.04284   1.04333   1.05197
  Beta virt. eigenvalues --    1.06232   1.06488   1.06780   1.06808   1.07398
  Beta virt. eigenvalues --    1.08179   1.10498   1.11159   1.11890   1.12511
  Beta virt. eigenvalues --    1.12782   1.13515   1.14920   1.14939   1.15197
  Beta virt. eigenvalues --    1.18508   1.19590   1.20054   1.21239   1.26895
  Beta virt. eigenvalues --    1.28474   1.29141   1.33613   1.39278   1.41748
  Beta virt. eigenvalues --    1.43519   1.43530   1.46051   1.46985   1.50024
  Beta virt. eigenvalues --    1.52891   1.53067   1.53595   1.55960   1.67190
  Beta virt. eigenvalues --    1.67201   1.74377   1.77115   1.77699   1.84953
  Beta virt. eigenvalues --    1.85569   1.93638   1.94568   1.96706   1.98641
  Beta virt. eigenvalues --    2.06338   2.08410   2.10465   2.12772   2.16769
  Beta virt. eigenvalues --    2.18148   2.21674   2.27324   2.32191   2.33641
  Beta virt. eigenvalues --    2.40525   2.40902   2.42690   2.43043   2.46903
  Beta virt. eigenvalues --    2.49037   2.49968   2.51744   2.55248   2.59076
  Beta virt. eigenvalues --    2.60802   2.67691   2.67716   2.68751   2.72772
  Beta virt. eigenvalues --    2.76412   2.77125   2.82398   2.86327   2.86473
  Beta virt. eigenvalues --    2.90557   2.92157   2.96831   3.00375   3.01911
  Beta virt. eigenvalues --    3.09377   3.12683   3.26141   3.29881   3.33349
  Beta virt. eigenvalues --    3.38887   3.42423   3.51200   3.54707   3.70418
  Beta virt. eigenvalues --    3.78403   4.01489   4.01664   4.11584   4.32006
  Beta virt. eigenvalues --    4.99669  10.07353  10.13567  10.15426  10.16459
  Beta virt. eigenvalues --   23.62620  24.06814  24.09005  24.16754  24.28594
  Beta virt. eigenvalues --   24.33273  26.03466  26.05341  26.11632  26.13767
  Beta virt. eigenvalues --   26.32155  26.34989  26.36185  26.56914  26.73532
  Beta virt. eigenvalues --   26.78998  27.03624  27.07167 216.16947 216.23938
  Beta virt. eigenvalues --  216.26078 216.27457
          Condensed to atoms (all electrons):
               1          2          3          4          5          6
     1  C   33.404138   2.302013  -8.493563  -4.818162 -10.942249  -4.042691
     2  C    2.302013  24.943671   2.307619 -10.939888  -1.783875 -10.943403
     3  C   -8.493563   2.307619  33.401095  -4.042748 -10.945938  -4.817447
     4  C   -4.818162 -10.939888  -4.042748  33.403012   2.298733  -8.493379
     5  C  -10.942249  -1.783875 -10.945938   2.298733  24.954615   2.304343
     6  C   -4.042691 -10.943403  -4.817447  -8.493379   2.304343  33.399701
     7  Cl   0.533101   0.456817   0.420276  -0.284605  -0.052680  -1.934718
     8  Cl  -1.935767  -0.054719  -0.284518   0.420789   0.456615   0.535055
     9  H   -0.100500   0.589268  -0.100148  -0.104777   0.060221  -0.105132
    10  Cl  -0.284704  -0.052654  -1.935438   0.533189   0.457192   0.420262
    11  Cl   0.420807   0.456256   0.535020  -1.935081  -0.054773  -0.284434
    12  H   -0.104766   0.060183  -0.105123  -0.100428   0.589246  -0.100072
               7          8          9         10         11         12
     1  C    0.533101  -1.935767  -0.100500  -0.284704   0.420807  -0.104766
     2  C    0.456817  -0.054719   0.589268  -0.052654   0.456256   0.060183
     3  C    0.420276  -0.284518  -0.100148  -1.935438   0.535020  -0.105123
     4  C   -0.284605   0.420789  -0.104777   0.533189  -1.935081  -0.100428
     5  C   -0.052680   0.456615   0.060221   0.457192  -0.054773   0.589246
     6  C   -1.934718   0.535055  -0.105132   0.420262  -0.284434  -0.100072
     7  Cl  17.904077  -0.300462  -0.005967  -0.004157  -0.030100   0.021223
     8  Cl  -0.300462  17.905357   0.021231  -0.030092  -0.004157  -0.005980
     9  H   -0.005967   0.021231   0.565145   0.021242  -0.005982   0.002100
    10  Cl  -0.004157  -0.030092   0.021242  17.904369  -0.300466  -0.005964
    11  Cl  -0.030100  -0.004157  -0.005982  -0.300466  17.905075   0.021212
    12  H    0.021223  -0.005980   0.002100  -0.005964   0.021212   0.565137
          Atomic-Atomic Spin Densities.
               1          2          3          4          5          6
     1  C    0.961221  -0.047479  -0.193883  -0.210270  -0.092606  -0.076504
     2  C   -0.047479   0.226140  -0.045628  -0.092345  -0.028086  -0.093405
     3  C   -0.193883  -0.045628   0.961255  -0.076500  -0.093666  -0.210492
     4  C   -0.210270  -0.092345  -0.076500   0.961088  -0.047456  -0.194096
     5  C   -0.092606  -0.028086  -0.093666  -0.047456   0.226645  -0.045605
     6  C   -0.076504  -0.093405  -0.210492  -0.194096  -0.045605   0.961130
     7  Cl   0.216503   0.023390  -0.040745   0.045867  -0.029443  -0.281697
     8  Cl  -0.281612  -0.029632   0.046099  -0.040631   0.023196   0.216507
     9  H    0.000272  -0.007979   0.000353   0.005198  -0.001251   0.005161
    10  Cl   0.045913  -0.029460  -0.281767   0.216530   0.023385  -0.040744
    11  Cl  -0.040632   0.023201   0.216480  -0.281541  -0.029616   0.046053
    12  H    0.005193  -0.001252   0.005157   0.000273  -0.007979   0.000355
               7          8          9         10         11         12
     1  C    0.216503  -0.281612   0.000272   0.045913  -0.040632   0.005193
     2  C    0.023390  -0.029632  -0.007979  -0.029460   0.023201  -0.001252
     3  C   -0.040745   0.046099   0.000353  -0.281767   0.216480   0.005157
     4  C    0.045867  -0.040631   0.005198   0.216530  -0.281541   0.000273
     5  C   -0.029443   0.023196  -0.001251   0.023385  -0.029616  -0.007979
     6  C   -0.281697   0.216507   0.005161  -0.040744   0.046053   0.000355
     7  Cl   0.115115  -0.032294   0.000482   0.002244  -0.004293  -0.000963
     8  Cl  -0.032294   0.115081  -0.000964  -0.004298   0.002240   0.000480
     9  H    0.000482  -0.000964   0.000656  -0.000966   0.000480  -0.000055
    10  Cl   0.002244  -0.004298  -0.000966   0.115164  -0.032294   0.000483
    11  Cl  -0.004293   0.002240   0.000480  -0.032294   0.115033  -0.000962
    12  H   -0.000963   0.000480  -0.000055   0.000483  -0.000962   0.000659
 Mulliken charges and spin densities:
               1          2
     1  C    0.062346   0.286117
     2  C   -1.341287  -0.102536
     3  C    0.060914   0.286662
     4  C    0.063345   0.286117
     5  C   -1.341450  -0.102481
     6  C    0.061916   0.286665
     7  Cl   0.277195   0.014167
     8  Cl   0.276648   0.014172
     9  H    0.163298   0.001387
    10  Cl   0.277221   0.014191
    11  Cl   0.276623   0.014149
    12  H    0.163231   0.001390
 Sum of Mulliken charges =  -1.00000   1.00000
 Mulliken charges and spin densities with hydrogens summed into heavy atoms:
               1          2
     1  C    0.062346   0.286117
     2  C   -1.177989  -0.101148
     3  C    0.060914   0.286662
     4  C    0.063345   0.286117
     5  C   -1.178219  -0.101091
     6  C    0.061916   0.286665
     7  Cl   0.277195   0.014167
     8  Cl   0.276648   0.014172
    10  Cl   0.277221   0.014191
    11  Cl   0.276623   0.014149
 Electronic spatial extent (au):  <R**2>=           2878.4797
 Charge=             -1.0000 electrons
 Dipole moment (field-independent basis, Debye):
    X=             -0.0000    Y=             -0.0000    Z=             -0.0000  Tot=              0.0000
 Quadrupole moment (field-independent basis, Debye-Ang):
   XX=           -102.4852   YY=           -112.8709   ZZ=            -92.4751
   XY=              9.4170   XZ=              0.0000   YZ=             -0.0000
 Traceless Quadrupole moment (field-independent basis, Debye-Ang):
   XX=              0.1252   YY=            -10.2605   ZZ=             10.1353
   XY=              9.4170   XZ=              0.0000   YZ=             -0.0000
 Octapole moment (field-independent basis, Debye-Ang**2):
  XXX=             -0.0003  YYY=              0.0022  ZZZ=             -0.0000  XYY=             -0.0002
  XXY=             -0.0027  XXZ=             -0.0000  XZZ=             -0.0002  YZZ=             -0.0002
  YYZ=             -0.0000  XYZ=              0.0000
 Hexadecapole moment (field-independent basis, Debye-Ang**3):
 XXXX=          -1617.5961 YYYY=          -2372.7833 ZZZZ=           -115.6040 XXXY=            362.9986
 XXXZ=              0.0000 YYYX=            321.9985 YYYZ=             -0.0000 ZZZX=              0.0000
 ZZZY=             -0.0000 XXYY=           -647.7927 XXZZ=           -287.8123 YYZZ=           -405.1950
 XXYZ=             -0.0000 YYXZ=              0.0000 ZZXY=            106.4794
 N-N= 8.302221385344D+02 E-N=-6.587527200070D+03  KE= 2.066176797219D+03
 Symmetry A'   KE= 1.874739054595D+03
 Symmetry A"   KE= 1.914377426243D+02
 Symmetry A'   SP= 9.963244841474D-14
 Symmetry A"   SP= 1.000000000000D+00
                          Isotropic Fermi Contact Couplings
        Atom                 a.u.       MegaHertz       Gauss      10(-4) cm-1
     1  C(13)              0.03864      43.43702      15.49941      14.48903
     2  C(13)             -0.02984     -33.55008     -11.97150     -11.19110
     3  C(13)              0.03873      43.54025      15.53624      14.52346
     4  C(13)              0.03863      43.42461      15.49498      14.48489
     5  C(13)             -0.02984     -33.54513     -11.96974     -11.18945
     6  C(13)              0.03872      43.52865      15.53211      14.51960
     7  Cl(35)            -0.00442      -1.93753      -0.69136      -0.64629
     8  Cl(35)            -0.00443      -1.94394      -0.69365      -0.64843
     9  H(1)               0.00063       2.80731       1.00172       0.93642
    10  Cl(35)            -0.00443      -1.94049      -0.69241      -0.64728
    11  Cl(35)            -0.00443      -1.94108      -0.69263      -0.64747
    12  H(1)               0.00063       2.80630       1.00136       0.93608
 --------------------------------------------------------
       Center         ----  Spin Dipole Couplings  ----
                      3XX-RR        3YY-RR        3ZZ-RR
 --------------------------------------------------------
     1   Atom       -0.182511     -0.193216      0.375727
     2   Atom        0.034359      0.042321     -0.076680
     3   Atom       -0.193319     -0.182882      0.376201
     4   Atom       -0.182459     -0.193170      0.375628
     5   Atom        0.034341      0.042308     -0.076649
     6   Atom       -0.193272     -0.182836      0.376108
     7   Atom       -0.045722     -0.146520      0.192242
     8   Atom       -0.122122     -0.069989      0.192111
     9   Atom        0.002433      0.003636     -0.006069
    10   Atom       -0.045752     -0.146540      0.192292
    11   Atom       -0.122098     -0.069962      0.192060
    12   Atom        0.002434      0.003635     -0.006069
 --------------------------------------------------------
                        XY            XZ            YZ
 --------------------------------------------------------
     1   Atom       -0.002781      0.000000      0.000000
     2   Atom       -0.007223      0.000000     -0.000000
     3   Atom        0.003035      0.000000      0.000000
     4   Atom       -0.002778      0.000000      0.000000
     5   Atom       -0.007228      0.000000     -0.000000
     6   Atom        0.003040      0.000000      0.000000
     7   Atom        0.000952      0.000000      0.000000
     8   Atom        0.043048     -0.000000     -0.000000
     9   Atom       -0.001091      0.000000      0.000000
    10   Atom        0.000951      0.000000      0.000000
    11   Atom        0.043051     -0.000000     -0.000000
    12   Atom       -0.001090      0.000000      0.000000
 --------------------------------------------------------


 ---------------------------------------------------------------------------------
              Anisotropic Spin Dipole Couplings in Principal Axis System
 ---------------------------------------------------------------------------------

       Atom             a.u.   MegaHertz   Gauss  10(-4) cm-1        Axes

              Baa    -0.1939   -26.019    -9.284    -8.679  0.2373  0.9714 -0.0000
     1 C(13)  Bbb    -0.1818   -24.400    -8.707    -8.139  0.9714 -0.2373 -0.0000
              Bcc     0.3757    50.419    17.991    16.818  0.0000  0.0000  1.0000
 
              Baa    -0.0767   -10.290    -3.672    -3.432  0.0000  0.0000  1.0000
     2 C(13)  Bbb     0.0301     4.038     1.441     1.347  0.8610  0.5086  0.0000
              Bcc     0.0466     6.252     2.231     2.085 -0.5086  0.8610 -0.0000
 
              Baa    -0.1941   -26.051    -9.296    -8.690  0.9655 -0.2604 -0.0000
     3 C(13)  Bbb    -0.1821   -24.431    -8.718    -8.149  0.2604  0.9655 -0.0000
              Bcc     0.3762    50.483    18.013    16.839  0.0000  0.0000  1.0000
 
              Baa    -0.1938   -26.012    -9.282    -8.677  0.2369  0.9715 -0.0000
     4 C(13)  Bbb    -0.1818   -24.393    -8.704    -8.137  0.9715 -0.2369 -0.0000
              Bcc     0.3756    50.406    17.986    16.814  0.0000  0.0000  1.0000
 
              Baa    -0.0766   -10.286    -3.670    -3.431  0.0000  0.0000  1.0000
     5 C(13)  Bbb     0.0301     4.035     1.440     1.346  0.8610  0.5086  0.0000
              Bcc     0.0466     6.250     2.230     2.085 -0.5086  0.8610 -0.0000
 
              Baa    -0.1941   -26.045    -9.294    -8.688  0.9654 -0.2607 -0.0000
     6 C(13)  Bbb    -0.1820   -24.425    -8.715    -8.147  0.2607  0.9654 -0.0000
              Bcc     0.3761    50.470    18.009    16.835  0.0000  0.0000  1.0000
 
              Baa    -0.1465    -7.669    -2.736    -2.558 -0.0094  1.0000 -0.0000
     7 Cl(35) Bbb    -0.0457    -2.393    -0.854    -0.798  1.0000  0.0094  0.0000
              Bcc     0.1922    10.062     3.590     3.356  0.0000  0.0000  1.0000
 
              Baa    -0.1464    -7.661    -2.734    -2.555  0.8712 -0.4909 -0.0000
     8 Cl(35) Bbb    -0.0457    -2.393    -0.854    -0.798  0.4909  0.8712 -0.0000
              Bcc     0.1921    10.055     3.588     3.354  0.0000  0.0000  1.0000
 
              Baa    -0.0061    -3.238    -1.155    -1.080  0.0000  0.0000  1.0000
     9 H(1)   Bbb     0.0018     0.954     0.341     0.318  0.8611  0.5085  0.0000
              Bcc     0.0043     2.284     0.815     0.762 -0.5085  0.8611 -0.0000
 
              Baa    -0.1465    -7.670    -2.737    -2.558 -0.0094  1.0000 -0.0000
    10 Cl(35) Bbb    -0.0457    -2.394    -0.854    -0.799  1.0000  0.0094  0.0000
              Bcc     0.1923    10.064     3.591     3.357  0.0000  0.0000  1.0000
 
              Baa    -0.1464    -7.660    -2.733    -2.555  0.8712 -0.4909 -0.0000
    11 Cl(35) Bbb    -0.0457    -2.392    -0.853    -0.798  0.4909  0.8712 -0.0000
              Bcc     0.1921    10.052     3.587     3.353  0.0000  0.0000  1.0000
 
              Baa    -0.0061    -3.238    -1.155    -1.080  0.0000  0.0000  1.0000
    12 H(1)   Bbb     0.0018     0.955     0.341     0.319  0.8611  0.5085  0.0000
              Bcc     0.0043     2.283     0.815     0.761 -0.5085  0.8611 -0.0000
 

 ---------------------------------------------------------------------------------

 Calling FoFJK, ICntrl=      2127 FMM=F ISym2X=1 I1Cent= 0 IOpClX= 1 NMat=1 NMatS=1 NMatT=0.
 ***** Axes restored to original set *****
 -------------------------------------------------------------------
 Center     Atomic                   Forces (Hartrees/Bohr)
 Number     Number              X              Y              Z
 -------------------------------------------------------------------
      1        6           0.018308621    0.018215631    0.000000000
      2        6           0.000064798   -0.003174875    0.000000000
      3        6          -0.019407497    0.017182285   -0.000000000
      4        6          -0.018338139   -0.018198304   -0.000000000
      5        6          -0.000062489    0.003048423   -0.000000000
      6        6           0.019436156   -0.017162683    0.000000000
      7       17          -0.018863361   -0.012580768   -0.000000000
      8       17          -0.019488650    0.011556936   -0.000000000
      9        1           0.000312026   -0.011378817    0.000000000
     10       17           0.018944121    0.012625517    0.000000000
     11       17           0.019406751   -0.011517902    0.000000000
     12        1          -0.000312339    0.011384557   -0.000000000
 -------------------------------------------------------------------
 Cartesian Forces:  Max     0.019488650 RMS     0.011799700

 GradGradGradGradGradGradGradGradGradGradGradGradGradGradGradGradGradGrad
 Berny optimization.
 FormGI is forming the generalized inverse of G from B-inverse, IUseBI=4.
 Internal  Forces:  Max     0.022760151 RMS     0.008232742
 Search for a local minimum.
 Step number   1 out of a maximum of   64
 All quantities printed in internal units (Hartrees-Bohrs-Radians)
 Mixed Optimization -- RFO/linear search
 Second derivative matrix not updated -- first step.
 ITU=  0
     Eigenvalues ---    0.01899   0.01900   0.01974   0.01974   0.02050
     Eigenvalues ---    0.02054   0.02203   0.02203   0.02203   0.16000
     Eigenvalues ---    0.16000   0.23000   0.23962   0.25000   0.25000
     Eigenvalues ---    0.25000   0.25000   0.25000   0.33638   0.33641
     Eigenvalues ---    0.34643   0.34643   0.34657   0.34657   0.39274
     Eigenvalues ---    0.41642   0.42908   0.46184   0.47088   0.47089
 RFO step:  Lambda=-1.01731982D-02 EMin= 1.89903388D-02
 Linear search not attempted -- first point.
 Iteration  1 RMS(Cart)=  0.03104547 RMS(Int)=  0.00014327
 Iteration  2 RMS(Cart)=  0.00031082 RMS(Int)=  0.00000056
 Iteration  3 RMS(Cart)=  0.00000003 RMS(Int)=  0.00000056
 ClnCor:  largest displacement from symmetrization is 2.74D-11 for atom     7.
 Variable       Old X    -DE/DX   Delta X   Delta X   Delta X     New X
                                 (Linear)    (Quad)   (Total)
    R1        2.62923  -0.00335   0.00000  -0.00696  -0.00696   2.62228
    R2        2.69381   0.02252   0.00000   0.05279   0.05279   2.74661
    R3        3.23235   0.02265   0.00000   0.06349   0.06349   3.29585
    R4        2.62922  -0.00333   0.00000  -0.00693  -0.00693   2.62229
    R5        2.07940  -0.01138   0.00000  -0.03284  -0.03284   2.04656
    R6        2.69381   0.02252   0.00000   0.05280   0.05280   2.74661
    R7        3.23235   0.02276   0.00000   0.06380   0.06380   3.29615
    R8        2.62923  -0.00336   0.00000  -0.00697  -0.00697   2.62225
    R9        3.23258   0.02256   0.00000   0.06326   0.06326   3.29584
   R10        2.62922  -0.00334   0.00000  -0.00695  -0.00695   2.62227
   R11        2.07945  -0.01139   0.00000  -0.03286  -0.03286   2.04659
   R12        3.23258   0.02267   0.00000   0.06357   0.06357   3.29614
    A1        2.09191  -0.00398   0.00000  -0.01657  -0.01657   2.07534
    A2        2.08252   0.00109   0.00000   0.00483   0.00483   2.08734
    A3        2.10876   0.00289   0.00000   0.01174   0.01174   2.12050
    A4        2.09950   0.00794   0.00000   0.03306   0.03306   2.13256
    A5        2.09184  -0.00397   0.00000  -0.01655  -0.01655   2.07529
    A6        2.09184  -0.00397   0.00000  -0.01651  -0.01651   2.07534
    A7        2.09192  -0.00400   0.00000  -0.01662  -0.01662   2.07529
    A8        2.08251   0.00117   0.00000   0.00513   0.00513   2.08764
    A9        2.10875   0.00283   0.00000   0.01149   0.01149   2.12025
   A10        2.09163  -0.00392   0.00000  -0.01631  -0.01631   2.07532
   A11        2.10886   0.00287   0.00000   0.01165   0.01165   2.12052
   A12        2.08270   0.00105   0.00000   0.00466   0.00466   2.08735
   A13        2.09979   0.00788   0.00000   0.03281   0.03281   2.13259
   A14        2.09170  -0.00394   0.00000  -0.01642  -0.01642   2.07527
   A15        2.09170  -0.00394   0.00000  -0.01639  -0.01639   2.07532
   A16        2.09163  -0.00393   0.00000  -0.01636  -0.01636   2.07527
   A17        2.10886   0.00280   0.00000   0.01140   0.01140   2.12026
   A18        2.08269   0.00113   0.00000   0.00496   0.00496   2.08765
    D1       -0.00000  -0.00000   0.00000   0.00000   0.00000   0.00000
    D2        3.14159  -0.00000   0.00000   0.00000   0.00000   3.14159
    D3        3.14159  -0.00000   0.00000   0.00000   0.00000   3.14159
    D4       -0.00000   0.00000   0.00000   0.00000   0.00000   0.00000
    D5        0.00000   0.00000   0.00000  -0.00000   0.00000   0.00000
    D6        3.14159  -0.00000   0.00000  -0.00000   0.00000   3.14159
    D7        3.14159   0.00000   0.00000  -0.00000   0.00000   3.14159
    D8        0.00000   0.00000   0.00000  -0.00000   0.00000   0.00000
    D9       -0.00000  -0.00000   0.00000  -0.00000   0.00000   0.00000
   D10        3.14159  -0.00000   0.00000  -0.00000   0.00000   3.14159
   D11        3.14159  -0.00000   0.00000   0.00000   0.00000   3.14159
   D12        0.00000  -0.00000   0.00000   0.00000  -0.00000   0.00000
   D13        0.00000   0.00000   0.00000  -0.00000   0.00000   0.00000
   D14        3.14159   0.00000   0.00000  -0.00000   0.00000   3.14159
   D15        3.14159   0.00000   0.00000  -0.00000   0.00000   3.14159
   D16       -0.00000   0.00000   0.00000  -0.00000   0.00000   0.00000
   D17       -0.00000  -0.00000   0.00000   0.00000   0.00000   0.00000
   D18        3.14159  -0.00000   0.00000   0.00000   0.00000   3.14159
   D19        3.14159  -0.00000   0.00000   0.00000   0.00000   3.14159
   D20        0.00000  -0.00000   0.00000   0.00000   0.00000   0.00000
   D21       -0.00000  -0.00000   0.00000  -0.00000   0.00000   0.00000
   D22        3.14159   0.00000   0.00000  -0.00000   0.00000   3.14159
   D23        3.14159  -0.00000   0.00000   0.00000   0.00000   3.14159
   D24       -0.00000  -0.00000   0.00000   0.00000   0.00000   0.00000
         Item               Value     Threshold  Converged?
 Maximum Force            0.022760     0.000450     NO 
 RMS     Force            0.008233     0.000300     NO 
 Maximum Displacement     0.092920     0.001800     NO 
 RMS     Displacement     0.031093     0.001200     NO 
 Predicted change in Energy=-5.234326D-03
 GradGradGradGradGradGradGradGradGradGradGradGradGradGradGradGradGradGrad

                          Input orientation:                          
 ---------------------------------------------------------------------
 Center     Atomic      Atomic             Coordinates (Angstroms)
 Number     Number       Type             X           Y           Z
 ---------------------------------------------------------------------
      1          6           0       -3.207173    0.223205   -0.000000
      2          6           0       -2.011330    0.927143   -0.000000
      3          6           0       -0.778568    0.290046    0.000000
      4          6           0       -0.738607   -1.162846    0.000000
      5          6           0       -1.934453   -1.866755    0.000000
      6          6           0       -3.167218   -1.229687   -0.000000
      7         17           0       -4.629112   -2.181133   -0.000000
      8         17           0       -4.718804    1.093153   -0.000000
      9          1           0       -2.041150    2.009725   -0.000000
     10         17           0        0.683339    1.241479    0.000000
     11         17           0        0.773011   -2.032809    0.000000
     12          1           0       -1.904633   -2.949352    0.000000
 ---------------------------------------------------------------------
                    Distance matrix (angstroms):
                    1          2          3          4          5
     1  C    0.000000
     2  C    1.387648   0.000000
     3  C    2.429524   1.387658   0.000000
     4  C    2.831069   2.447014   1.453441   0.000000
     5  C    2.446987   2.794956   2.447011   1.387637   0.000000
     6  C    1.453441   2.447038   2.831119   2.429530   1.387647
     7  Cl   2.793341   4.063762   4.575305   4.021559   2.712936
     8  Cl   1.744087   2.712559   4.021249   4.575095   4.063701
     9  H    2.133369   1.082993   2.133403   3.429552   3.877949
    10  Cl   4.021562   2.712941   1.744247   2.793333   4.063737
    11  Cl   4.575091   4.063727   2.793395   1.744083   2.712552
    12  H    3.429537   3.877963   3.429537   2.133359   1.083007
                    6          7          8          9         10
     6  C    0.000000
     7  Cl   1.744244   0.000000
     8  Cl   2.793386   3.275514   0.000000
     9  H    3.429551   4.925530   2.830183   0.000000
    10  Cl   4.575309   6.319526   5.404179   2.830732   0.000000
    11  Cl   4.021245   5.404159   6.319152   4.925605   3.275516
    12  H    2.133393   2.830715   4.925587   4.960956   4.925512
                   11         12
    11  Cl   0.000000
    12  H    2.830164   0.000000
 Stoichiometry    C6H2Cl4(1-,2)
 Framework group  CS[SG(C6H2Cl4)]
 Deg. of freedom    21
 Full point group                 CS      NOp   2
 Largest Abelian subgroup         CS      NOp   2
 Largest concise Abelian subgroup C1      NOp   1
                         Standard orientation:                         
 ---------------------------------------------------------------------
 Center     Atomic      Atomic             Coordinates (Angstroms)
 Number     Number       Type             X           Y           Z
 ---------------------------------------------------------------------
      1          6           0       -0.726723    1.214747    0.000000
      2          6           0       -1.397495   -0.000009    0.000000
      3          6           0       -0.726723   -1.214777    0.000000
      4          6           0        0.726718   -1.214751    0.000000
      5          6           0        1.397461    0.000009    0.000000
      6          6           0        0.726718    1.214779    0.000000
      7         17           0        1.637584    2.702297    0.000000
      8         17           0       -1.637930    2.701873    0.000000
      9          1           0       -2.480488    0.000015    0.000000
     10         17           0       -1.637576   -2.702306    0.000000
     11         17           0        1.637940   -2.701862    0.000000
     12          1           0        2.480468   -0.000016    0.000000
 ---------------------------------------------------------------------
 Rotational constants (GHZ):           1.0991202           0.4627597           0.3256515
 Standard basis: 6-311++G(d,p) (5D, 7F)
 There are   206 symmetry adapted cartesian basis functions of A'  symmetry.
 There are    70 symmetry adapted cartesian basis functions of A"  symmetry.
 There are   196 symmetry adapted basis functions of A'  symmetry.
 There are    70 symmetry adapted basis functions of A"  symmetry.
   266 basis functions,   446 primitive gaussians,   276 cartesian basis functions
    54 alpha electrons       53 beta electrons
       nuclear repulsion energy       818.5620011077 Hartrees.
 NAtoms=   12 NActive=   12 NUniq=   12 SFac= 1.00D+00 NAtFMM=   60 NAOKFM=F Big=F
 Integral buffers will be    131072 words long.
 Raffenetti 2 integral format.
 Two-electron integral symmetry is turned on.
 One-electron integrals computed using PRISM.
 NBasis=   266 RedAO= T EigKep=  1.76D-06  NBF=   196    70
 NBsUse=   265 1.00D-06 EigRej=  5.63D-07 NBFU=   195    70
 Initial guess from the checkpoint file:  "frequency_chks/1245ClBzAnionRadical_Freq.chk"
 B after Tr=    -0.000000    0.000000   -0.000000
         Rot=    0.964640    0.000000    0.000000    0.263572 Ang=  30.56 deg.
 Initial guess orbital symmetries:
 Alpha Orbitals:
       Occupied  (A') (A') (A') (A') (A') (A') (A') (A') (A') (A')
                 (A') (A') (A') (A') (A') (A') (A') (A') (A") (A")
                 (A") (A") (A') (A') (A') (A') (A') (A') (A') (A')
                 (A') (A') (A') (A') (A') (A') (A') (A') (A') (A')
                 (A") (A") (A') (A') (A") (A") (A') (A') (A') (A')
                 (A") (A") (A") (A")
       Virtual   (A') (A') (A') (A') (A') (A") (A') (A') (A") (A")
                 (A") (A') (A') (A') (A') (A") (A') (A') (A') (A")
                 (A') (A') (A") (A') (A") (A') (A') (A') (A") (A')
                 (A') (A") (A") (A") (A') (A') (A') (A') (A') (A')
                 (A') (A') (A') (A') (A') (A') (A') (A') (A') (A')
                 (A') (A') (A') (A') (A') (A") (A') (A") (A') (A")
                 (A') (A') (A") (A') (A') (A') (A') (A") (A') (A")
                 (A") (A') (A") (A") (A') (A") (A') (A') (A') (A')
                 (A') (A") (A') (A') (A") (A') (A') (A') (A') (A')
                 (A") (A') (A") (A") (A") (A') (A") (A') (A') (A")
                 (A') (A') (A') (A') (A') (A') (A") (A') (A') (A')
                 (A") (A') (A') (A') (A") (A') (A') (A') (A") (A")
                 (A') (A') (A") (A') (A') (A') (A") (A') (A') (A")
                 (A') (A') (A') (A") (A') (A") (A") (A') (A") (A')
                 (A') (A") (A') (A') (A') (A') (A") (A") (A") (A")
                 (A") (A') (A') (A') (A') (A') (A') (A') (A') (A')
                 (A') (A') (A") (A') (A') (A') (A') (A") (A") (A")
                 (A") (A') (A") (A') (A') (A') (A') (A') (A') (A')
                 (A') (A') (A') (A') (A') (A') (A') (A') (A') (A')
                 (A') (A') (A') (A') (A') (A") (A") (A") (A") (A')
                 (A') (A') (A') (A') (A') (A') (A') (A') (A') (A')
                 (A')
 Beta  Orbitals:
       Occupied  (A') (A') (A') (A') (A') (A') (A') (A') (A') (A')
                 (A') (A') (A') (A') (A') (A') (A') (A') (A') (A')
                 (A') (A') (A") (A") (A") (A") (A') (A') (A') (A')
                 (A') (A') (A') (A') (A') (A') (A') (A') (A') (A')
                 (A") (A') (A') (A") (A") (A") (A') (A') (A') (A')
                 (A") (A") (A")
       Virtual   (A') (A') (A') (A') (A") (A') (A') (A") (A') (A")
                 (A") (A") (A') (A') (A') (A') (A") (A') (A') (A")
                 (A') (A') (A') (A') (A") (A") (A') (A') (A") (A')
                 (A') (A') (A") (A") (A') (A') (A") (A') (A') (A')
                 (A') (A') (A') (A') (A') (A') (A') (A') (A') (A')
                 (A') (A') (A') (A') (A') (A') (A") (A') (A") (A')
                 (A") (A') (A') (A") (A') (A') (A') (A') (A") (A')
                 (A") (A") (A') (A") (A') (A") (A') (A') (A") (A')
                 (A') (A') (A") (A') (A') (A") (A') (A') (A') (A')
                 (A') (A") (A') (A") (A") (A") (A') (A") (A') (A")
                 (A') (A') (A') (A') (A') (A') (A') (A') (A") (A')
                 (A') (A") (A') (A') (A') (A") (A') (A') (A') (A")
                 (A') (A") (A') (A") (A') (A') (A') (A") (A') (A')
                 (A") (A') (A') (A') (A") (A') (A") (A") (A') (A")
                 (A') (A') (A") (A') (A') (A') (A') (A") (A") (A")
                 (A") (A") (A') (A') (A') (A') (A') (A') (A') (A')
                 (A') (A') (A') (A') (A") (A') (A') (A') (A") (A")
                 (A") (A") (A') (A") (A') (A') (A') (A') (A') (A')
                 (A') (A') (A') (A') (A') (A') (A') (A') (A') (A')
                 (A') (A') (A') (A') (A') (A') (A") (A") (A") (A")
                 (A') (A') (A') (A') (A') (A') (A') (A') (A') (A')
                 (A') (A')
 Initial guess <Sx>= 0.0000 <Sy>= 0.0000 <Sz>= 0.5000 <S**2>= 0.7606 S= 0.5053
 ExpMin= 3.60D-02 ExpMax= 1.06D+05 ExpMxC= 3.62D+03 IAcc=3 IRadAn=         5 AccDes= 0.00D+00
 Harris functional with IExCor= 1009 and IRadAn=       5 diagonalized for initial guess.
 HarFok:  IExCor= 1009 AccDes= 0.00D+00 IRadAn=         5 IDoV= 1 UseB2=F ITyADJ=14
 ICtDFT=  3500011 ScaDFX=  1.000000  1.000000  1.000000  1.000000
 FoFCou: FMM=F IPFlag=           0 FMFlag=      100000 FMFlg1=           0
         NFxFlg=           0 DoJE=T BraDBF=F KetDBF=T FulRan=T
         wScrn=  0.000000 ICntrl=       500 IOpCl=  0 I1Cent=   200000004 NGrid=           0
         NMat0=    1 NMatS0=      1 NMatT0=    0 NMatD0=    1 NMtDS0=    0 NMtDT0=    0
 Petite list used in FoFCou.
 Keep R1 and R2 ints in memory in symmetry-blocked form, NReq=994759113.
 Requested convergence on RMS density matrix=1.00D-08 within 128 cycles.
 Requested convergence on MAX density matrix=1.00D-06.
 Requested convergence on             energy=1.00D-06.
 No special actions if energy rises.
 SCF Done:  E(UM062X) =  -2070.58738914     A.U. after   20 cycles
            NFock= 20  Conv=0.61D-08     -V/T= 2.0023
 <Sx>= 0.0000 <Sy>= 0.0000 <Sz>= 0.5000 <S**2>= 0.7612 S= 0.5056
 <L.S>=  0.00000000000    
 Annihilation of the first spin contaminant:
 S**2 before annihilation     0.7612,   after     0.7501
 Calling FoFJK, ICntrl=      2127 FMM=F ISym2X=1 I1Cent= 0 IOpClX= 1 NMat=1 NMatS=1 NMatT=0.
 ***** Axes restored to original set *****
 -------------------------------------------------------------------
 Center     Atomic                   Forces (Hartrees/Bohr)
 Number     Number              X              Y              Z
 -------------------------------------------------------------------
      1        6           0.005730008   -0.000535126   -0.000000000
      2        6           0.000125798   -0.003826356   -0.000000000
      3        6          -0.005618081   -0.000853839   -0.000000000
      4        6          -0.005729125    0.000544576    0.000000000
      5        6          -0.000125237    0.003797634    0.000000000
      6        6           0.005616449    0.000863094   -0.000000000
      7       17          -0.003511489   -0.001258020   -0.000000000
      8       17          -0.003656251    0.001075511    0.000000000
      9        1          -0.000018241    0.000754477   -0.000000000
     10       17           0.003511535    0.001258581   -0.000000000
     11       17           0.003656642   -0.001074981   -0.000000000
     12        1           0.000017992   -0.000745549   -0.000000000
 -------------------------------------------------------------------
 Cartesian Forces:  Max     0.005730008 RMS     0.002460352

 GradGradGradGradGradGradGradGradGradGradGradGradGradGradGradGradGradGrad
 Berny optimization.
 Using GEDIIS/GDIIS optimizer.
 FormGI is forming the generalized inverse of G from B-inverse, IUseBI=4.
 Internal  Forces:  Max     0.003705466 RMS     0.001365017
 Search for a local minimum.
 Step number   2 out of a maximum of   64
 All quantities printed in internal units (Hartrees-Bohrs-Radians)
 Mixed Optimization -- RFO/linear search
 Update second derivatives using D2CorX and points    1    2
 DE= -5.32D-03 DEPred=-5.23D-03 R= 1.02D+00
 TightC=F SS=  1.41D+00  RLast= 1.70D-01 DXNew= 5.0454D-01 5.1125D-01
 Trust test= 1.02D+00 RLast= 1.70D-01 DXMaxT set to 5.05D-01
 ITU=  1  0
 Use linear search instead of GDIIS.
     Eigenvalues ---    0.01898   0.01901   0.01973   0.01973   0.02049
     Eigenvalues ---    0.02060   0.02203   0.02203   0.02203   0.16000
     Eigenvalues ---    0.16000   0.23134   0.23928   0.25000   0.25000
     Eigenvalues ---    0.25000   0.25000   0.25041   0.30521   0.33640
     Eigenvalues ---    0.34196   0.34644   0.34650   0.34658   0.39320
     Eigenvalues ---    0.42872   0.43378   0.46237   0.47089   0.47727
 RFO step:  Lambda=-2.71534554D-04 EMin= 1.89804700D-02
 Quartic linear search produced a step of  0.09072.
 Iteration  1 RMS(Cart)=  0.00569216 RMS(Int)=  0.00001775
 Iteration  2 RMS(Cart)=  0.00003441 RMS(Int)=  0.00000005
 Iteration  3 RMS(Cart)=  0.00000000 RMS(Int)=  0.00000005
 ClnCor:  largest displacement from symmetrization is 9.82D-13 for atom    10.
 Variable       Old X    -DE/DX   Delta X   Delta X   Delta X     New X
                                 (Linear)    (Quad)   (Total)
    R1        2.62228  -0.00257  -0.00063  -0.00554  -0.00617   2.61611
    R2        2.74661  -0.00106   0.00479  -0.00590  -0.00111   2.74550
    R3        3.29585   0.00371   0.00576   0.00798   0.01374   3.30958
    R4        2.62229  -0.00258  -0.00063  -0.00556  -0.00619   2.61610
    R5        2.04656   0.00075  -0.00298   0.00434   0.00136   2.04792
    R6        2.74661  -0.00106   0.00479  -0.00590  -0.00111   2.74550
    R7        3.29615   0.00363   0.00579   0.00772   0.01351   3.30966
    R8        2.62225  -0.00256  -0.00063  -0.00551  -0.00614   2.61611
    R9        3.29584   0.00371   0.00574   0.00799   0.01373   3.30957
   R10        2.62227  -0.00257  -0.00063  -0.00554  -0.00617   2.61610
   R11        2.04659   0.00075  -0.00298   0.00431   0.00133   2.04792
   R12        3.29614   0.00363   0.00577   0.00774   0.01350   3.30965
    A1        2.07534   0.00012  -0.00150   0.00146  -0.00004   2.07530
    A2        2.08734   0.00141   0.00044   0.00586   0.00630   2.09365
    A3        2.12050  -0.00153   0.00107  -0.00733  -0.00626   2.11424
    A4        2.13256  -0.00025   0.00300  -0.00301  -0.00001   2.13254
    A5        2.07529   0.00013  -0.00150   0.00152   0.00002   2.07532
    A6        2.07534   0.00012  -0.00150   0.00149  -0.00001   2.07532
    A7        2.07529   0.00014  -0.00151   0.00155   0.00005   2.07534
    A8        2.08764   0.00135   0.00047   0.00558   0.00605   2.09369
    A9        2.12025  -0.00149   0.00104  -0.00713  -0.00609   2.11416
   A10        2.07532   0.00012  -0.00148   0.00147  -0.00001   2.07530
   A11        2.12052  -0.00153   0.00106  -0.00734  -0.00628   2.11424
   A12        2.08735   0.00141   0.00042   0.00587   0.00629   2.09364
   A13        2.13259  -0.00026   0.00298  -0.00303  -0.00005   2.13254
   A14        2.07527   0.00013  -0.00149   0.00153   0.00004   2.07532
   A15        2.07532   0.00013  -0.00149   0.00150   0.00001   2.07533
   A16        2.07527   0.00014  -0.00148   0.00156   0.00007   2.07534
   A17        2.12026  -0.00149   0.00103  -0.00714  -0.00611   2.11416
   A18        2.08765   0.00135   0.00045   0.00559   0.00604   2.09369
    D1        0.00000  -0.00000   0.00000  -0.00000   0.00000   0.00000
    D2        3.14159  -0.00000   0.00000   0.00000   0.00000   3.14159
    D3        3.14159  -0.00000   0.00000  -0.00000   0.00000   3.14159
    D4        0.00000   0.00000   0.00000  -0.00000   0.00000   0.00000
    D5        0.00000   0.00000   0.00000   0.00000   0.00000   0.00000
    D6        3.14159   0.00000   0.00000  -0.00000   0.00000   3.14159
    D7        3.14159  -0.00000   0.00000   0.00000   0.00000   3.14159
    D8        0.00000   0.00000   0.00000  -0.00000   0.00000   0.00000
    D9        0.00000  -0.00000   0.00000  -0.00000   0.00000   0.00000
   D10        3.14159  -0.00000   0.00000   0.00000   0.00000   3.14159
   D11        3.14159  -0.00000   0.00000  -0.00000   0.00000   3.14159
   D12        0.00000   0.00000   0.00000  -0.00000   0.00000   0.00000
   D13        0.00000   0.00000   0.00000   0.00000   0.00000   0.00000
   D14        3.14159   0.00000   0.00000   0.00000   0.00000   3.14159
   D15        3.14159   0.00000   0.00000   0.00000   0.00000   3.14159
   D16        0.00000   0.00000   0.00000   0.00000   0.00000   0.00000
   D17        0.00000  -0.00000   0.00000  -0.00000   0.00000   0.00000
   D18        3.14159  -0.00000   0.00000  -0.00000   0.00000   3.14159
   D19        3.14159  -0.00000   0.00000  -0.00000   0.00000   3.14159
   D20        0.00000  -0.00000   0.00000  -0.00000   0.00000   0.00000
   D21        0.00000  -0.00000   0.00000   0.00000   0.00000   0.00000
   D22        3.14159  -0.00000   0.00000   0.00000   0.00000   3.14159
   D23        3.14159  -0.00000   0.00000  -0.00000   0.00000   3.14159
   D24        0.00000  -0.00000   0.00000   0.00000   0.00000   0.00000
         Item               Value     Threshold  Converged?
 Maximum Force            0.003705     0.000450     NO 
 RMS     Force            0.001365     0.000300     NO 
 Maximum Displacement     0.016911     0.001800     NO 
 RMS     Displacement     0.005715     0.001200     NO 
 Predicted change in Energy=-1.646889D-04
 GradGradGradGradGradGradGradGradGradGradGradGradGradGradGradGradGradGrad

                          Input orientation:                          
 ---------------------------------------------------------------------
 Center     Atomic      Atomic             Coordinates (Angstroms)
 Number     Number       Type             X           Y           Z
 ---------------------------------------------------------------------
      1          6           0       -3.204295    0.223051    0.000000
      2          6           0       -2.011233    0.925280    0.000000
      3          6           0       -0.781417    0.289617    0.000000
      4          6           0       -0.741489   -1.162689    0.000000
      5          6           0       -1.934550   -1.864921    0.000000
      6          6           0       -3.164366   -1.229256    0.000000
      7         17           0       -4.638061   -2.175610    0.000000
      8         17           0       -4.727662    1.087111    0.000000
      9          1           0       -2.041000    2.008584    0.000000
     10         17           0        0.692283    1.235974    0.000000
     11         17           0        0.781874   -2.026747    0.000000
     12          1           0       -1.904783   -2.948224    0.000000
 ---------------------------------------------------------------------
                    Distance matrix (angstroms):
                    1          2          3          4          5
     1  C    0.000000
     2  C    1.384385   0.000000
     3  C    2.423792   1.384382   0.000000
     4  C    2.825896   2.443740   1.452855   0.000000
     5  C    2.443742   2.791254   2.443716   1.384385   0.000000
     6  C    1.452855   2.443714   2.825848   2.423791   1.384383
     7  Cl   2.794505   4.063956   4.577231   4.026075   2.721305
     8  Cl   1.751356   2.721245   4.026021   4.577246   4.063984
     9  H    2.131052   1.083713   2.131055   3.427200   3.874967
    10  Cl   4.026081   2.721310   1.751395   2.794510   4.063963
    11  Cl   4.577240   4.063977   2.794534   1.751351   2.721240
    12  H    3.427202   3.874966   3.427181   2.131053   1.083712
                    6          7          8          9         10
     6  C    0.000000
     7  Cl   1.751389   0.000000
     8  Cl   2.794540   3.263951   0.000000
     9  H    3.427179   4.924652   2.840293   0.000000
    10  Cl   4.577237   6.328623   5.421989   2.840380   0.000000
    11  Cl   4.026015   5.421979   6.328593   4.924684   3.263951
    12  H    2.131056   2.840377   4.924690   4.958679   4.924659
                   11         12
    11  Cl   0.000000
    12  H    2.840290   0.000000
 Stoichiometry    C6H2Cl4(1-,2)
 Framework group  CS[SG(C6H2Cl4)]
 Deg. of freedom    21
 Full point group                 CS      NOp   2
 Largest Abelian subgroup         CS      NOp   2
 Largest concise Abelian subgroup C1      NOp   1
                         Standard orientation:                         
 ---------------------------------------------------------------------
 Center     Atomic      Atomic             Coordinates (Angstroms)
 Number     Number       Type             X           Y           Z
 ---------------------------------------------------------------------
      1          6           0        0.418279    1.349616    0.000000
      2          6           0       -0.930978    1.039735    0.000000
      3          6           0       -1.387422   -0.267236   -0.000000
      4          6           0       -0.418278   -1.349617   -0.000000
      5          6           0        0.930981   -1.039738   -0.000000
      6          6           0        1.387422    0.267235    0.000000
      7         17           0        3.108312    0.592662    0.000000
      8         17           0        0.930981    3.024246    0.000000
      9          1           0       -1.653893    1.847093    0.000000
     10         17           0       -3.108317   -0.592664   -0.000000
     11         17           0       -0.930978   -3.024242   -0.000000
     12          1           0        1.653896   -1.847095   -0.000000
 ---------------------------------------------------------------------
 Rotational constants (GHZ):           1.1058554           0.4600593           0.3248958
 Standard basis: 6-311++G(d,p) (5D, 7F)
 There are   206 symmetry adapted cartesian basis functions of A'  symmetry.
 There are    70 symmetry adapted cartesian basis functions of A"  symmetry.
 There are   196 symmetry adapted basis functions of A'  symmetry.
 There are    70 symmetry adapted basis functions of A"  symmetry.
   266 basis functions,   446 primitive gaussians,   276 cartesian basis functions
    54 alpha electrons       53 beta electrons
       nuclear repulsion energy       817.9755218376 Hartrees.
 NAtoms=   12 NActive=   12 NUniq=   12 SFac= 1.00D+00 NAtFMM=   60 NAOKFM=F Big=F
 Integral buffers will be    131072 words long.
 Raffenetti 2 integral format.
 Two-electron integral symmetry is turned on.
 One-electron integrals computed using PRISM.
 NBasis=   266 RedAO= T EigKep=  1.73D-06  NBF=   196    70
 NBsUse=   265 1.00D-06 EigRej=  5.66D-07 NBFU=   195    70
 Initial guess from the checkpoint file:  "frequency_chks/1245ClBzAnionRadical_Freq.chk"
 B after Tr=    -0.000000   -0.000000    0.000000
         Rot=    0.912969    0.000000    0.000000    0.408028 Ang=  48.16 deg.
 Initial guess orbital symmetries:
 Alpha Orbitals:
       Occupied  (A') (A') (A') (A') (A') (A') (A') (A') (A') (A')
                 (A') (A') (A') (A') (A') (A') (A') (A') (A") (A")
                 (A") (A") (A') (A') (A') (A') (A') (A') (A') (A')
                 (A') (A') (A') (A') (A') (A') (A') (A') (A') (A')
                 (A") (A') (A") (A') (A") (A") (A') (A') (A') (A')
                 (A") (A") (A") (A")
       Virtual   (A') (A') (A') (A') (A') (A") (A') (A') (A") (A")
                 (A") (A') (A') (A') (A") (A') (A') (A') (A') (A")
                 (A') (A') (A') (A") (A") (A') (A') (A') (A") (A')
                 (A') (A") (A') (A") (A") (A') (A') (A') (A') (A')
                 (A') (A') (A') (A') (A') (A') (A') (A') (A') (A')
                 (A') (A') (A') (A') (A') (A') (A") (A") (A') (A")
                 (A') (A') (A') (A") (A') (A') (A') (A") (A') (A")
                 (A') (A") (A") (A") (A') (A") (A') (A') (A') (A')
                 (A') (A") (A') (A') (A") (A') (A') (A') (A') (A')
                 (A') (A") (A") (A") (A") (A') (A") (A') (A') (A')
                 (A") (A') (A') (A') (A') (A') (A') (A") (A') (A')
                 (A") (A') (A') (A') (A") (A') (A') (A') (A") (A")
                 (A') (A") (A') (A') (A') (A') (A') (A") (A') (A")
                 (A') (A') (A') (A") (A") (A') (A") (A') (A') (A")
                 (A') (A") (A') (A') (A') (A') (A") (A") (A") (A")
                 (A") (A') (A') (A') (A') (A') (A') (A') (A') (A')
                 (A') (A') (A") (A') (A') (A') (A') (A") (A") (A")
                 (A") (A') (A") (A') (A') (A') (A') (A') (A') (A')
                 (A') (A') (A') (A') (A') (A') (A') (A') (A') (A')
                 (A') (A') (A') (A') (A') (A") (A") (A") (A") (A')
                 (A') (A') (A') (A') (A') (A') (A') (A') (A') (A')
                 (A')
 Beta  Orbitals:
       Occupied  (A') (A') (A') (A') (A') (A') (A') (A') (A') (A')
                 (A') (A') (A') (A') (A') (A') (A') (A') (A') (A')
                 (A') (A') (A") (A") (A") (A") (A') (A') (A') (A')
                 (A') (A') (A') (A') (A') (A') (A') (A') (A') (A')
                 (A") (A') (A') (A") (A") (A") (A') (A') (A') (A')
                 (A") (A") (A")
       Virtual   (A') (A') (A') (A') (A') (A") (A') (A") (A') (A")
                 (A") (A") (A') (A') (A') (A") (A') (A') (A') (A")
                 (A') (A') (A') (A') (A") (A") (A') (A') (A') (A")
                 (A') (A') (A") (A') (A") (A') (A") (A') (A') (A')
                 (A') (A') (A') (A') (A') (A') (A') (A') (A') (A')
                 (A') (A') (A') (A') (A') (A') (A') (A") (A") (A')
                 (A") (A') (A') (A') (A") (A') (A') (A') (A") (A')
                 (A") (A') (A") (A") (A') (A") (A') (A") (A') (A')
                 (A') (A') (A") (A') (A') (A") (A') (A') (A') (A')
                 (A') (A') (A") (A") (A") (A") (A') (A') (A") (A')
                 (A') (A") (A') (A') (A') (A') (A') (A') (A") (A')
                 (A') (A") (A') (A') (A') (A") (A') (A') (A') (A")
                 (A") (A') (A") (A') (A') (A') (A') (A') (A") (A')
                 (A") (A') (A') (A') (A") (A') (A") (A") (A') (A')
                 (A") (A') (A") (A') (A') (A') (A') (A") (A") (A")
                 (A") (A") (A') (A') (A') (A') (A') (A') (A') (A')
                 (A') (A') (A') (A") (A') (A') (A') (A') (A") (A")
                 (A") (A") (A') (A") (A') (A') (A') (A') (A') (A')
                 (A') (A') (A') (A') (A') (A') (A') (A') (A') (A')
                 (A') (A') (A') (A') (A') (A') (A") (A") (A") (A")
                 (A') (A') (A') (A') (A') (A') (A') (A') (A') (A')
                 (A') (A')
 Initial guess <Sx>= 0.0000 <Sy>= 0.0000 <Sz>= 0.5000 <S**2>= 0.7611 S= 0.5056
 Keep R1 and R2 ints in memory in symmetry-blocked form, NReq=994759113.
 Requested convergence on RMS density matrix=1.00D-08 within 128 cycles.
 Requested convergence on MAX density matrix=1.00D-06.
 Requested convergence on             energy=1.00D-06.
 No special actions if energy rises.
 SCF Done:  E(UM062X) =  -2070.58756811     A.U. after   19 cycles
[...]
    R7        3.31181   0.00007   0.00000   0.00041   0.00041   3.31222
    R8        2.61618   0.00011   0.00000   0.00030   0.00030   2.61648
    R9        3.31151   0.00012   0.00000   0.00071   0.00071   3.31223
   R10        2.61607   0.00008   0.00000   0.00021   0.00021   2.61628
   R11        2.04895  -0.00010   0.00000  -0.00034  -0.00034   2.04862
   R12        3.31181   0.00007   0.00000   0.00041   0.00041   3.31222
    A1        2.07652   0.00006   0.00000   0.00046   0.00046   2.07698
    A2        2.09329  -0.00016   0.00000  -0.00093  -0.00093   2.09237
    A3        2.11337   0.00010   0.00000   0.00046   0.00046   2.11384
    A4        2.12994  -0.00011   0.00000  -0.00077  -0.00077   2.12917
    A5        2.07669   0.00005   0.00000   0.00032   0.00032   2.07701
    A6        2.07656   0.00006   0.00000   0.00045   0.00045   2.07701
    A7        2.07673   0.00005   0.00000   0.00031   0.00031   2.07704
    A8        2.09286  -0.00009   0.00000  -0.00049  -0.00049   2.09237
    A9        2.11360   0.00004   0.00000   0.00018   0.00018   2.11378
   A10        2.07652   0.00006   0.00000   0.00046   0.00046   2.07698
   A11        2.11337   0.00010   0.00000   0.00046   0.00046   2.11384
   A12        2.09329  -0.00016   0.00000  -0.00093  -0.00093   2.09237
   A13        2.12994  -0.00011   0.00000  -0.00077  -0.00077   2.12917
   A14        2.07669   0.00005   0.00000   0.00032   0.00032   2.07701
   A15        2.07656   0.00006   0.00000   0.00045   0.00045   2.07701
   A16        2.07673   0.00005   0.00000   0.00031   0.00031   2.07704
   A17        2.11360   0.00004   0.00000   0.00019   0.00019   2.11378
   A18        2.09286  -0.00009   0.00000  -0.00049  -0.00049   2.09237
    D1       -0.00000  -0.00000   0.00000   0.00000   0.00000   0.00000
    D2        3.14159  -0.00000   0.00000   0.00000   0.00000   3.14159
    D3        3.14159  -0.00000   0.00000   0.00000   0.00000   3.14159
    D4        0.00000  -0.00000   0.00000   0.00000   0.00000   0.00000
    D5        0.00000   0.00000   0.00000  -0.00000   0.00000   0.00000
    D6        3.14159   0.00000   0.00000   0.00000   0.00000   3.14159
    D7        3.14159   0.00000   0.00000  -0.00000   0.00000   3.14159
    D8       -0.00000   0.00000   0.00000  -0.00000   0.00000   0.00000
    D9        0.00000   0.00000   0.00000   0.00000   0.00000   0.00000
   D10        3.14159   0.00000   0.00000   0.00000   0.00000   3.14159
   D11        3.14159  -0.00000   0.00000   0.00000   0.00000   3.14159
   D12       -0.00000  -0.00000   0.00000   0.00000   0.00000   0.00000
   D13        0.00000   0.00000   0.00000  -0.00000  -0.00000   0.00000
   D14        3.14159   0.00000   0.00000   0.00000   0.00000   3.14159
   D15        3.14159   0.00000   0.00000  -0.00000   0.00000   3.14159
   D16        0.00000   0.00000   0.00000   0.00000   0.00000   0.00000
   D17       -0.00000  -0.00000   0.00000   0.00000   0.00000   0.00000
   D18        3.14159  -0.00000   0.00000   0.00000   0.00000   3.14159
   D19        3.14159  -0.00000   0.00000  -0.00000   0.00000   3.14159
   D20        0.00000  -0.00000   0.00000  -0.00000   0.00000   0.00000
   D21        0.00000  -0.00000   0.00000   0.00000  -0.00000   0.00000
   D22        3.14159  -0.00000   0.00000  -0.00000   0.00000   3.14159
   D23        3.14159   0.00000   0.00000   0.00000   0.00000   3.14159
   D24       -0.00000  -0.00000   0.00000  -0.00000   0.00000   0.00000
         Item               Value     Threshold  Converged?
 Maximum Force            0.000232     0.000450     YES
 RMS     Force            0.000080     0.000300     YES
 Maximum Displacement     0.001035     0.001800     YES
 RMS     Displacement     0.000319     0.001200     YES
 Predicted change in Energy=-8.221102D-07
 Optimization completed.
    -- Stationary point found.
                           ----------------------------
                           !   Optimized Parameters   !
                           ! (Angstroms and Degrees)  !
 --------------------------                            --------------------------
 ! Name  Definition              Value          Derivative Info.                !
 --------------------------------------------------------------------------------
 ! R1    R(1,2)                  1.3844         -DE/DX =    0.0001              !
 ! R2    R(1,6)                  1.4527         -DE/DX =   -0.0002              !
 ! R3    R(1,8)                  1.7524         -DE/DX =    0.0001              !
 ! R4    R(2,3)                  1.3844         -DE/DX =    0.0001              !
 ! R5    R(2,9)                  1.0843         -DE/DX =   -0.0001              !
 ! R6    R(3,4)                  1.4527         -DE/DX =   -0.0002              !
 ! R7    R(3,10)                 1.7525         -DE/DX =    0.0001              !
 ! R8    R(4,5)                  1.3844         -DE/DX =    0.0001              !
 ! R9    R(4,11)                 1.7524         -DE/DX =    0.0001              !
 ! R10   R(5,6)                  1.3844         -DE/DX =    0.0001              !
 ! R11   R(5,12)                 1.0843         -DE/DX =   -0.0001              !
 ! R12   R(6,7)                  1.7525         -DE/DX =    0.0001              !
 ! A1    A(2,1,6)              118.9758         -DE/DX =    0.0001              !
 ! A2    A(2,1,8)              119.937          -DE/DX =   -0.0002              !
 ! A3    A(6,1,8)              121.0872         -DE/DX =    0.0001              !
 ! A4    A(1,2,3)              122.0365         -DE/DX =   -0.0001              !
 ! A5    A(1,2,9)              118.9854         -DE/DX =    0.0                 !
 ! A6    A(3,2,9)              118.9781         -DE/DX =    0.0001              !
 ! A7    A(2,3,4)              118.9877         -DE/DX =    0.0001              !
 ! A8    A(2,3,10)             119.9121         -DE/DX =   -0.0001              !
 ! A9    A(4,3,10)             121.1001         -DE/DX =    0.0                 !
 ! A10   A(3,4,5)              118.9758         -DE/DX =    0.0001              !
 ! A11   A(3,4,11)             121.0872         -DE/DX =    0.0001              !
 ! A12   A(5,4,11)             119.9369         -DE/DX =   -0.0002              !
 ! A13   A(4,5,6)              122.0364         -DE/DX =   -0.0001              !
 ! A14   A(4,5,12)             118.9854         -DE/DX =    0.0                 !
 ! A15   A(6,5,12)             118.9782         -DE/DX =    0.0001              !
 ! A16   A(1,6,5)              118.9877         -DE/DX =    0.0001              !
 ! A17   A(1,6,7)              121.1001         -DE/DX =    0.0                 !
 ! A18   A(5,6,7)              119.9121         -DE/DX =   -0.0001              !
 ! D1    D(6,1,2,3)              0.0            -DE/DX =    0.0                 !
 ! D2    D(6,1,2,9)            180.0            -DE/DX =    0.0                 !
 ! D3    D(8,1,2,3)            180.0            -DE/DX =    0.0                 !
 ! D4    D(8,1,2,9)              0.0            -DE/DX =    0.0                 !
 ! D5    D(2,1,6,5)              0.0            -DE/DX =    0.0                 !
 ! D6    D(2,1,6,7)            180.0            -DE/DX =    0.0                 !
 ! D7    D(8,1,6,5)            180.0            -DE/DX =    0.0                 !
 ! D8    D(8,1,6,7)              0.0            -DE/DX =    0.0                 !
 ! D9    D(1,2,3,4)              0.0            -DE/DX =    0.0                 !
 ! D10   D(1,2,3,10)           180.0            -DE/DX =    0.0                 !
 ! D11   D(9,2,3,4)            180.0            -DE/DX =    0.0                 !
 ! D12   D(9,2,3,10)             0.0            -DE/DX =    0.0                 !
 ! D13   D(2,3,4,5)              0.0            -DE/DX =    0.0                 !
 ! D14   D(2,3,4,11)           180.0            -DE/DX =    0.0                 !
 ! D15   D(10,3,4,5)           180.0            -DE/DX =    0.0                 !
 ! D16   D(10,3,4,11)            0.0            -DE/DX =    0.0                 !
 ! D17   D(3,4,5,6)              0.0            -DE/DX =    0.0                 !
 ! D18   D(3,4,5,12)           180.0            -DE/DX =    0.0                 !
 ! D19   D(11,4,5,6)           180.0            -DE/DX =    0.0                 !
 ! D20   D(11,4,5,12)            0.0            -DE/DX =    0.0                 !
 ! D21   D(4,5,6,1)              0.0            -DE/DX =    0.0                 !
 ! D22   D(4,5,6,7)            180.0            -DE/DX =    0.0                 !
 ! D23   D(12,5,6,1)           180.0            -DE/DX =    0.0                 !
 ! D24   D(12,5,6,7)             0.0            -DE/DX =    0.0                 !
 --------------------------------------------------------------------------------
 GradGradGradGradGradGradGradGradGradGradGradGradGradGradGradGradGradGrad


 ----------------------------------------------------------------------

 Electric dipole moment (input orientation):
 (Debye = 10**-18 statcoulomb cm , SI units = C m)
                  (au)            (Debye)         (10**-30 SI)
   Tot        0.000000D+00      0.000000D+00      0.000000D+00
   x          0.000000D+00      0.000000D+00      0.000000D+00
   y          0.000000D+00      0.000000D+00      0.000000D+00
   z          0.000000D+00      0.000000D+00      0.000000D+00

 Dipole polarizability, Alpha (input orientation).
 (esu units = cm**3 , SI units = C**2 m**2 J**-1)
 Alpha(0;0):
               (au)            (10**-24 esu)      (10**-40 SI)
   iso        0.130723D+03      0.193711D+02      0.215533D+02
   aniso      0.999047D+02      0.148043D+02      0.164721D+02
   xx         0.188707D+03      0.279636D+02      0.311137D+02
   yx         0.159834D+01      0.236849D+00      0.263530D+00
   yy         0.130063D+03      0.192734D+02      0.214445D+02
   zx         0.000000D+00      0.000000D+00      0.000000D+00
   zy         0.000000D+00      0.000000D+00      0.000000D+00
   zz         0.733974D+02      0.108764D+02      0.121016D+02

 ----------------------------------------------------------------------

 Dipole orientation:
     6         -5.99508570         -0.41785436         -0.84147851
     6         -3.66072933         -0.25515093         -2.01138853
     6         -1.43319501         -0.09989295         -0.64837609
     6         -1.54847973         -0.10792823          2.09438765
     6         -3.88283635         -0.27063167          3.26429966
     6         -6.11037062         -0.42588966          1.90128520
    17         -9.00862719         -0.62789663          3.49105594
    17         -8.74983085         -0.60985866         -2.66922396
     1         -3.57434204         -0.24912978         -4.05851289
    17          1.46506325          0.10211415         -2.23814935
    17          1.20626363          0.08407595          3.92213044
     1         -3.96922361         -0.27665282          5.31142316

 Electric dipole moment (dipole orientation):
 (Debye = 10**-18 statcoulomb cm , SI units = C m)
                  (au)            (Debye)         (10**-30 SI)
   Tot        0.000000D+00      0.000000D+00      0.000000D+00
   x          0.000000D+00      0.000000D+00      0.000000D+00
   y          0.000000D+00      0.000000D+00      0.000000D+00
   z          0.000000D+00      0.000000D+00      0.000000D+00

 Dipole polarizability, Alpha (dipole orientation).
 (esu units = cm**3 , SI units = C**2 m**2 J**-1)
 Alpha(0;0):
               (au)            (10**-24 esu)      (10**-40 SI)
   iso        0.130723D+03      0.193711D+02      0.215533D+02
   aniso      0.999047D+02      0.148043D+02      0.164721D+02
   xx         0.188088D+03      0.278718D+02      0.310116D+02
   yx         0.799391D+01      0.118458D+01      0.131802D+01
   yy         0.739545D+02      0.109589D+02      0.121935D+02
   zx         0.247882D+01      0.367323D+00      0.408701D+00
   zy         0.172772D+00      0.256022D-01      0.284863D-01
   zz         0.130125D+03      0.192825D+02      0.214547D+02

 ----------------------------------------------------------------------
 1\1\GINC-SH03-01N10\Freq\UM062X\6-311++G(d,p)\C6H2Cl4(1-,2)\JLAPIER\09
 -Dec-2025\0\\#N Geom=AllCheck Guess=TCheck SCRF=Check GenChk UM062X/6-
 311++G(d,p) Freq\\4-Chloro-Benzene Anion Radical (1245)\\-1,2\C,-3.203
 4241835,0.223094555,0.\C,-2.0111817913,0.9267849035,0.\C,-0.7822705618
 ,0.2894143994,0.\C,-0.7423590498,-1.1627330705,0.\C,-1.9346015025,-1.8
 664244794,0.\C,-3.1635127824,-1.229052901,0.\Cl,-4.6387099066,-2.17518
 47965,0.\Cl,-4.728422807,1.0863506768,0.\H,-2.0407897288,2.0106409421,
 0.\Cl,0.692927367,1.2355476858,0.\Cl,0.7826385302,-2.0259878558,0.\H,-
 1.9049935834,-2.9502800594,0.\\Version=ES64L-G16RevB.01\State=2-A"\HF=
 -2070.5875761\S2=0.761096\S2-1=0.\S2A=0.750081\RMSD=6.493e-09\RMSF=1.9
 91e-04\ZeroPoint=0.0544268\Thermal=0.0637533\Dipole=0.0000001,-0.00000
 17,0.\DipoleDeriv=-0.0605959,-0.5129212,0.,-0.4691214,0.195943,0.,0.,0
 .,-0.1452557,0.7964076,0.0266569,0.,0.0265105,-0.1537523,0.,0.,0.,-0.0
 998106,-0.1125976,0.4956567,0.,0.4520733,0.2510458,0.,0.,0.,-0.1457729
 ,-0.0606169,-0.5129212,0.,-0.469131,0.1959435,0.,0.,0.,-0.1452547,0.79
 64394,0.0266573,0.,0.0265115,-0.1537521,0.,0.,0.,-0.099811,-0.1126189,
 0.4956563,0.,0.4520813,0.2510465,0.,0.,0.,-0.145772,-0.5890607,-0.2830
 169,0.,-0.356791,-0.3773671,0.,0.,0.,-0.1178178,-0.6232693,0.2692242,0
 .,0.3428997,-0.3427285,0.,0.,0.,-0.1178306,0.0891208,0.0044004,0.,0.00
 44283,-0.0731419,0.,0.,0.,0.1264868,-0.5890608,-0.283017,0.,-0.3567901
 ,-0.3773676,0.,0.,0.,-0.1178177,-0.6232691,0.2692241,0.,0.3429005,-0.3
 42728,0.,0.,0.,-0.1178307,0.0891214,0.0044004,0.,0.0044283,-0.0731415,
 0.,0.,0.,0.1264869\Polar=188.7074249,1.5983379,130.063177,0.,0.,73.397
 3698\Quadrupole=-11.933377,4.1872183,7.7461587,-0.442117,0.,0.\PG=CS [
 SG(C6H2Cl4)]\NImag=3\\0.32914098,-0.03193380,0.48883197,0.,0.,0.018102
 77,0.09384647,0.07420690,0.,0.08265777,-0.13911796,-0.17868291,0.,-0.0
 1847361,0.73814033,0.,0.,-0.05344751,0.,0.,0.11971501,-0.29828926,-0.1
 2827364,0.,0.08888410,0.15446300,0.,0.32673387,0.10489468,0.11160966,0
 .,-0.05788025,-0.17454097,0.,0.02175976,0.49271127,0.,0.,0.05110167,0.
 ,0.,-0.05354642,0.,0.,0.01827996,0.21791861,0.09815962,0.,-0.34872814,
 0.01281724,0.,0.15422646,-0.07431603,0.,0.32914123,0.09815942,0.001113
 41,0.,-0.13980876,-0.02085115,0.,0.10081837,-0.31283321,0.,-0.03193489
 ,0.48883225,0.,0.,-0.03934001,0.,0.,0.01798106,0.,0.,-0.00404120,0.,0.
 ,0.01810299,-0.34872820,-0.13980913,0.,0.55870802,0.01589433,0.,-0.354
 19819,0.11994057,0.,0.09384711,0.07420709,0.,0.08265626,0.01281723,-0.
 02085110,0.,0.01589423,-0.00385084,0.,-0.03169524,-0.01465560,0.,-0.13
 911742,-0.17868289,0.,-0.01847365,0.73814122,0.,0.,0.01798107,0.,0.,-0
 .00955787,0.,0.,0.01793333,0.,0.,-0.05344763,0.,0.,0.11971500,0.154226
 47,0.10081853,0.,-0.35419814,-0.03169537,0.,0.22738122,-0.08458733,0.,
 -0.29828884,-0.12827330,0.,0.08888471,0.15446243,0.,0.32673397,-0.0743
 1589,-0.31283323,0.,0.11994023,-0.01465563,0.,-0.08458715,-0.00980317,
 0.,0.10489438,0.11160948,0.,-0.05788036,-0.17454096,0.,0.02176073,0.49
 271168,0.,0.,-0.00404119,0.,0.,0.01793332,0.,0.,-0.03931119,0.,0.,0.05
 110155,0.,0.,-0.05354654,0.,0.,0.01828017,-0.00898092,0.00023651,0.,-0
 .00824596,-0.00277772,0.,0.00687799,-0.00142009,0.,-0.00700465,-0.0005
 5543,0.,-0.02429041,-0.02605341,0.,-0.13341886,-0.05509192,0.,0.175085
 53,-0.01850601,-0.00579200,0.,-0.01571065,-0.00607024,0.,0.01246096,-0
 .00369190,0.,-0.01248965,-0.00706942,0.,0.02256770,0.00286116,0.,-0.07
 031235,-0.06640312,0.,0.08492973,0.09030984,0.,0.,-0.01263007,0.,0.,-0
 .00189141,0.,0.,0.00665173,0.,0.,-0.00607577,0.,0.,0.00011123,0.,0.,0.
 01285331,0.,0.,-0.00448214,-0.14019630,0.05108772,0.,-0.02442270,0.024
 56529,0.,-0.00767442,0.00048192,0.,0.00742595,0.00204209,0.,-0.0092004
 6,0.00258853,0.,-0.01003074,-0.00041496,0.,0.00346989,-0.00099288,0.,0
 .18424990,0.06631717,-0.05968483,0.,-0.02406301,0.00295029,0.,0.012429
 90,-0.00630890,0.,-0.01185482,-0.00430756,0.,0.01552569,-0.00503551,0.
 ,0.01831612,-0.00486603,0.,0.00151426,-0.00604112,0.,-0.07983549,0.081
 26575,0.,0.,0.01291895,0.,0.,0.00008824,0.,0.,-0.00608964,0.,0.,0.0066
 5699,0.,0.,-0.00189787,0.,0.,-0.01263831,0.,0.,0.00610724,0.,0.,-0.004
 52220,0.01192302,-0.02218208,0.,-0.06686630,0.00747464,0.,0.01084482,0
 .02353790,0.,-0.01128230,-0.00379730,0.,0.01185586,0.00031499,0.,-0.01
 133803,0.00309518,0.,-0.00099996,-0.00202226,0.,0.00069987,-0.00122838
 ,0.,0.05532689,0.00408072,-0.01312930,0.,0.00751566,-0.34099841,0.,-0.
 00279040,-0.01206431,0.,0.00194896,0.00079533,0.,0.00028581,0.00073394
 ,0.,-0.00258994,0.00084604,0.,-0.00034745,-0.00055476,0.,0.00038464,0.
 00113136,0.,-0.00840026,0.36257729,0.,0.,0.00414710,0.,0.,-0.03445754,
 0.,0.,0.00416838,0.,0.,0.00462603,0.,0.,-0.00103023,0.,0.,0.00463838,0
 .,0.,0.00023027,0.,0.,-0.00309622,0.,0.,0.02361986,-0.00700456,-0.0005
 5540,0.,-0.02429045,-0.02605336,0.,-0.13341783,-0.05509139,0.,-0.00898
 099,0.00023650,0.,-0.00824580,-0.00277771,0.,0.00687790,-0.00142005,0.
 ,-0.00082772,-0.00048465,0.,-0.00231430,0.00046559,0.,0.00064935,-0.00
 041544,0.,0.17508446,-0.01248959,-0.00706938,0.,0.02256758,0.00286113,
 0.,-0.07031171,-0.06640291,0.,-0.01850599,-0.00579200,0.,-0.01571053,-
 0.00607022,0.,0.01246089,-0.00369186,0.,-0.00048464,0.00028211,0.,-0.0
 0064651,0.00099333,0.,0.00120656,0.00117611,0.,0.08492910,0.09030958,0
 .,0.,-0.00607582,0.,0.,0.00011118,0.,0.,0.01285329,0.,0.,-0.01263007,0
 .,0.,-0.00189144,0.,0.,0.00665173,0.,0.,-0.00264498,0.,0.,0.00488115,0
 .,0.,-0.00311054,0.,0.,-0.00448202,0.00742602,0.00204212,0.,-0.0092005
 8,0.00258853,0.,-0.01003070,-0.00041495,0.,-0.14019747,0.05108828,0.,-
 0.02442271,0.02456534,0.,-0.00767448,0.00048193,0.,-0.00231431,-0.0006
 4651,0.,-0.00087933,0.00042249,0.,-0.00112736,0.00031717,0.,0.00346989
 ,-0.00099289,0.,0.18425114,-0.01185491,-0.00430761,0.,0.01552585,-0.00
 503552,0.,0.01831610,-0.00486602,0.,0.06631786,-0.05968501,0.,-0.02406
 319,0.00295032,0.,0.01242999,-0.00630894,0.,0.00046559,0.00099333,0.,0
 .00042249,0.00033136,0.,0.00199048,-0.00042812,0.,0.00151426,-0.006041
 12,0.,-0.07983614,0.08126597,0.,0.,0.00665701,0.,0.,-0.00189784,0.,0.,
 -0.01263830,0.,0.,0.01291898,0.,0.,0.00008829,0.,0.,-0.00608959,0.,0.,
 0.00488112,0.,0.,-0.00264889,0.,0.,0.00024054,0.,0.,0.00610724,0.,0.,-
 0.00452234,-0.01128232,-0.00379733,0.,0.01185590,0.00031499,0.,-0.0113
 3805,0.00309520,0.,0.01192303,-0.02218207,0.,-0.06686619,0.00747467,0.
 ,0.01084483,0.02353788,0.,0.00064936,0.00120656,0.,-0.00112735,0.00199
 048,0.,0.00031414,0.00001053,0.,-0.00099996,-0.00202225,0.,0.00069988,
 -0.00122839,0.,0.05532673,0.00194894,0.00079533,0.,0.00028583,0.000733
 94,0.,-0.00258995,0.00084605,0.,0.00408075,-0.01312924,0.,0.00751568,-
 0.34099950,0.,-0.00279040,-0.01206427,0.,-0.00041543,0.00117611,0.,0.0
 0031717,-0.00042811,0.,0.00001053,-0.00008517,0.,-0.00034745,-0.000554
 76,0.,0.00038463,0.00113136,0.,-0.00840029,0.36257828,0.,0.,0.00462603
 ,0.,0.,-0.00103023,0.,0.,0.00463838,0.,0.,0.00414707,0.,0.,-0.03445734
 ,0.,0.,0.00416836,0.,0.,-0.00311053,0.,0.,0.00024055,0.,0.,0.00002396,
 0.,0.,0.00023028,0.,0.,-0.00309622,0.,0.,0.02361970\\-0.00002800,0.000
 54196,0.,-0.00001410,-0.00042485,0.,0.00003708,0.00044918,0.,0.0000286
 0,-0.00054183,0.,0.00001411,0.00042363,0.,-0.00003761,-0.00044906,0.,0
 .00003496,0.00006987,0.,0.00006473,-0.00012665,0.,0.00000466,0.0000954
 9,0.,-0.00003442,-0.00006952,0.,-0.00006534,0.00012700,0.,-0.00000466,
 -0.00009522,0.\\\@


 REFRAIN FROM ILLUSIONS, INSIST ON WORK AND NOT WORDS,
 PATIENTLY SEEK DIVINE AND SCIENTIFIC TRUTH.
 LAST WORDS OF MARIA MENDELEEVA TO HER SON DMITRI, C. 1850
 Job cpu time:       0 days  0 hours 37 minutes 17.5 seconds.
 Elapsed time:       0 days  0 hours  9 minutes 24.0 seconds.
 File lengths (MBytes):  RWF=    226 Int=      0 D2E=      0 Chk=     34 Scr=      1
 Normal termination of Gaussian 16 at Tue Dec  9 13:37:18 2025.
