 Entering Gaussian System, Link 0=g16
 Initial command:
 /share/software/user/restricted/gaussian/g16.B01/l1.exe "/home/users/jlapier/Chloroaromatics/Gau-19644.inp" -scrdir="/home/users/jlapier/Chloroaromatics/"
 Entering Link 1 = /share/software/user/restricted/gaussian/g16.B01/l1.exe PID=     19645.
  
 Copyright (c) 1988-2017, Gaussian, Inc.  All Rights Reserved.
  
 This is part of the Gaussian(R) 16 program.  It is based on
 the Gaussian(R) 09 system (copyright 2009, Gaussian, Inc.),
 the Gaussian(R) 03 system (copyright 2003, Gaussian, Inc.),
 the Gaussian(R) 98 system (copyright 1998, Gaussian, Inc.),
 the Gaussian(R) 94 system (copyright 1995, Gaussian, Inc.),
 the Gaussian 92(TM) system (copyright 1992, Gaussian, Inc.),
 the Gaussian 90(TM) system (copyright 1990, Gaussian, Inc.),
 the Gaussian 88(TM) system (copyright 1988, Gaussian, Inc.),
 the Gaussian 86(TM) system (copyright 1986, Carnegie Mellon
 University), and the Gaussian 82(TM) system (copyright 1983,
 Carnegie Mellon University). Gaussian is a federally registered
 trademark of Gaussian, Inc.
  
 This software contains proprietary and confidential information,
 including trade secrets, belonging to Gaussian, Inc.
  
 This software is provided under written license and may be
 used, copied, transmitted, or stored only in accord with that
 written license.
  
 The following legend is applicable only to US Government
 contracts under FAR:
  
                    RESTRICTED RIGHTS LEGEND
  
 Use, reproduction and disclosure by the US Government is
 subject to restrictions as set forth in subparagraphs (a)
 and (c) of the Commercial Computer Software - Restricted
 Rights clause in FAR 52.227-19.
  
 Gaussian, Inc.
 340 Quinnipiac St., Bldg. 40, Wallingford CT 06492
  
  
 ---------------------------------------------------------------
 Warning -- This program may not be used in any manner that
 competes with the business of Gaussian, Inc. or will provide
 assistance to any competitor of Gaussian, Inc.  The licensee
 of this program is prohibited from giving any competitor of
 Gaussian, Inc. access to this program.  By using this program,
 the user acknowledges that Gaussian, Inc. is engaged in the
 business of creating and licensing software in the field of
 computational chemistry and represents and warrants to the
 licensee that it is not a competitor of Gaussian, Inc. and that
 it will not use this program in any manner prohibited above.
 ---------------------------------------------------------------
  

 Cite this work as:
 Gaussian 16, Revision B.01,
 M. J. Frisch, G. W. Trucks, H. B. Schlegel, G. E. Scuseria, 
 M. A. Robb, J. R. Cheeseman, G. Scalmani, V. Barone, 
 G. A. Petersson, H. Nakatsuji, X. Li, M. Caricato, A. V. Marenich, 
 J. Bloino, B. G. Janesko, R. Gomperts, B. Mennucci, H. P. Hratchian, 
 J. V. Ortiz, A. F. Izmaylov, J. L. Sonnenberg, D. Williams-Young, 
 F. Ding, F. Lipparini, F. Egidi, J. Goings, B. Peng, A. Petrone, 
 T. Henderson, D. Ranasinghe, V. G. Zakrzewski, J. Gao, N. Rega, 
 G. Zheng, W. Liang, M. Hada, M. Ehara, K. Toyota, R. Fukuda, 
 J. Hasegawa, M. Ishida, T. Nakajima, Y. Honda, O. Kitao, H. Nakai, 
 T. Vreven, K. Throssell, J. A. Montgomery, Jr., J. E. Peralta, 
 F. Ogliaro, M. J. Bearpark, J. J. Heyd, E. N. Brothers, K. N. Kudin, 
 V. N. Staroverov, T. A. Keith, R. Kobayashi, J. Normand, 
 K. Raghavachari, A. P. Rendell, J. C. Burant, S. S. Iyengar, 
 J. Tomasi, M. Cossi, J. M. Millam, M. Klene, C. Adamo, R. Cammi, 
 J. W. Ochterski, R. L. Martin, K. Morokuma, O. Farkas, 
 J. B. Foresman, and D. J. Fox, Gaussian, Inc., Wallingford CT, 2016.
 
 ******************************************
 Gaussian 16:  ES64L-G16RevB.01 20-Dec-2017
                 9-Dec-2025 
 ******************************************
 %mem=8GB
 %nprocshare=4
 Will use up to    4 processors via shared memory.
 %oldchk=geometry_chks/124_ClBzNeutralRadical.chk
 %chk=frequency_chks/124_ClBzNeutralRadical_Freq.chk
 Copying data from "geometry_chks/124_ClBzNeutralRadical.chk" to current chk file "frequency_chks/124_ClBzNeutralRadical_Freq.chk"
 IOpt=  2 FromEx=T IUOpen= 4 IOptOp= 5 NList=   0 IFRang= 0 IUIn= 4 IUOut= 2.
 -------------------------------------------------------
 # opt freq 6-311++g(d,p) guess=read geom=allcheck m062x
 -------------------------------------------------------
 1/18=20,19=15,26=3,29=7,38=1/1,3;
 2/9=110,12=2,40=1/2;
 3/5=4,6=6,7=1111,11=2,14=-4,25=1,30=1,71=1,74=-55,116=-2/1,2,3;
 4/5=1/1;
 5/5=2,38=6/2;
 6/7=2,8=2,9=2,10=2,28=1/1;
 7//1,2,3,16;
 1/18=20,19=15,26=3/3(2);
 2/9=110/2;
 99//99;
 2/9=110/2;
 3/5=4,6=6,7=1111,11=2,14=-2,25=1,30=1,71=1,74=-55/1,2,3;
 4/5=5,16=3,69=1/1;
 5/5=2,38=5/2;
 7//1,2,3,16;
 1/18=20,19=15,26=3/3(-5);
 2/9=110/2;
 6/7=2,8=2,9=2,10=2,19=2,28=1/1;
 99/9=1/99;
 Structure from the checkpoint file:  "frequency_chks/124_ClBzNeutralRadical_Freq.chk"
 --------------------------------
 Neutral Radical (removed 5) 124_
 --------------------------------
 Charge =  0 Multiplicity = 2
 Redundant internal coordinates found in file.  (old form).
 C,0,-3.203807848,0.1982343273,0.
 C,0,-2.0154478823,0.951862667,0.
 C,0,-0.7702831885,0.2867320136,0.
 C,0,-0.8387399208,-1.0882914756,0.
 C,0,-1.9425652944,-1.8948821645,0.
 C,0,-3.184073565,-1.2167384408,0.
 Cl,0,-4.611761641,-2.116417473,0.
 Cl,0,-4.67745565,1.0327479002,0.
 H,0,-2.05534722,2.0515200365,0.
 Cl,0,0.6850057478,1.1279480562,0.
 H,0,-1.8763635377,-2.9910354468,0.
 Recover connectivity data from disk.

 GradGradGradGradGradGradGradGradGradGradGradGradGradGradGradGradGradGrad
 Berny optimization.
 Initialization pass.
                           ----------------------------
                           !    Initial Parameters    !
                           ! (Angstroms and Degrees)  !
 --------------------------                            --------------------------
 ! Name  Definition              Value          Derivative Info.                !
 --------------------------------------------------------------------------------
 ! R1    R(1,2)                  1.4072         estimate D2E/DX2                !
 ! R2    R(1,6)                  1.4151         estimate D2E/DX2                !
 ! R3    R(1,8)                  1.6935         estimate D2E/DX2                !
 ! R4    R(2,3)                  1.4117         estimate D2E/DX2                !
 ! R5    R(2,9)                  1.1004         estimate D2E/DX2                !
 ! R6    R(3,4)                  1.3767         estimate D2E/DX2                !
 ! R7    R(3,10)                 1.6809         estimate D2E/DX2                !
 ! R8    R(4,5)                  1.3671         estimate D2E/DX2                !
 ! R9    R(5,6)                  1.4146         estimate D2E/DX2                !
 ! R10   R(5,11)                 1.0982         estimate D2E/DX2                !
 ! R11   R(6,7)                  1.6875         estimate D2E/DX2                !
 ! A1    A(2,1,6)              121.5828         estimate D2E/DX2                !
 ! A2    A(2,1,8)              118.0957         estimate D2E/DX2                !
 ! A3    A(6,1,8)              120.3215         estimate D2E/DX2                !
 ! A4    A(1,2,3)              119.5083         estimate D2E/DX2                !
 ! A5    A(1,2,9)              120.3039         estimate D2E/DX2                !
 ! A6    A(3,2,9)              120.1878         estimate D2E/DX2                !
 ! A7    A(2,3,4)              115.2597         estimate D2E/DX2                !
 ! A8    A(2,3,10)             121.8605         estimate D2E/DX2                !
 ! A9    A(4,3,10)             122.8798         estimate D2E/DX2                !
 ! A10   A(3,4,5)              129.0066         estimate D2E/DX2                !
 ! A11   A(4,5,6)              115.199          estimate D2E/DX2                !
 ! A12   A(4,5,11)             122.7003         estimate D2E/DX2                !
 ! A13   A(6,5,11)             122.1007         estimate D2E/DX2                !
 ! A14   A(1,6,5)              119.4435         estimate D2E/DX2                !
 ! A15   A(1,6,7)              121.4187         estimate D2E/DX2                !
 ! A16   A(5,6,7)              119.1378         estimate D2E/DX2                !
 ! D1    D(6,1,2,3)              0.0            estimate D2E/DX2                !
 ! D2    D(6,1,2,9)            180.0            estimate D2E/DX2                !
 ! D3    D(8,1,2,3)            180.0            estimate D2E/DX2                !
 ! D4    D(8,1,2,9)              0.0            estimate D2E/DX2                !
 ! D5    D(2,1,6,5)              0.0            estimate D2E/DX2                !
 ! D6    D(2,1,6,7)            180.0            estimate D2E/DX2                !
 ! D7    D(8,1,6,5)            180.0            estimate D2E/DX2                !
 ! D8    D(8,1,6,7)              0.0            estimate D2E/DX2                !
 ! D9    D(1,2,3,4)              0.0            estimate D2E/DX2                !
 ! D10   D(1,2,3,10)           180.0            estimate D2E/DX2                !
 ! D11   D(9,2,3,4)            180.0            estimate D2E/DX2                !
 ! D12   D(9,2,3,10)             0.0            estimate D2E/DX2                !
 ! D13   D(2,3,4,5)              0.0            estimate D2E/DX2                !
 ! D14   D(10,3,4,5)           180.0            estimate D2E/DX2                !
 ! D15   D(3,4,5,6)              0.0            estimate D2E/DX2                !
 ! D16   D(3,4,5,11)           180.0            estimate D2E/DX2                !
 ! D17   D(4,5,6,1)              0.0            estimate D2E/DX2                !
 ! D18   D(4,5,6,7)            180.0            estimate D2E/DX2                !
 ! D19   D(11,5,6,1)           180.0            estimate D2E/DX2                !
 ! D20   D(11,5,6,7)             0.0            estimate D2E/DX2                !
 --------------------------------------------------------------------------------
 Trust Radius=3.00D-01 FncErr=1.00D-07 GrdErr=1.00D-06 EigMax=2.50D+02 EigMin=1.00D-04
 Number of steps in this run=     57 maximum allowed number of steps=    100.
 GradGradGradGradGradGradGradGradGradGradGradGradGradGradGradGradGradGrad

                          Input orientation:                          
 ---------------------------------------------------------------------
 Center     Atomic      Atomic             Coordinates (Angstroms)
 Number     Number       Type             X           Y           Z
 ---------------------------------------------------------------------
      1          6           0       -3.203808    0.198234   -0.000000
      2          6           0       -2.015448    0.951863    0.000000
      3          6           0       -0.770283    0.286732    0.000000
      4          6           0       -0.838740   -1.088291    0.000000
      5          6           0       -1.942565   -1.894882   -0.000000
      6          6           0       -3.184074   -1.216738   -0.000000
      7         17           0       -4.611762   -2.116417   -0.000000
      8         17           0       -4.677456    1.032748    0.000000
      9          1           0       -2.055347    2.051520    0.000000
     10         17           0        0.685006    1.127948    0.000000
     11          1           0       -1.876364   -2.991035   -0.000000
 ---------------------------------------------------------------------
                    Distance matrix (angstroms):
                    1          2          3          4          5
     1  C    0.000000
     2  C    1.407180   0.000000
     3  C    2.435133   1.411678   0.000000
     4  C    2.692340   2.355180   1.376727   0.000000
     5  C    2.443741   2.847678   2.476628   1.367121   0.000000
     6  C    1.415110   2.463436   2.843731   2.348848   1.414645
     7  Cl   2.709234   4.019352   4.531234   3.910593   2.678374
     8  Cl   1.693532   2.663236   3.977755   4.385721   4.006325
     9  H    2.180282   1.100381   2.183086   3.367276   3.948013
    10  Cl   3.998405   2.706188   1.680925   2.689520   4.005201
    11  H    3.454497   3.945350   3.459360   2.167279   1.098151
                    6          7          8          9         10
     6  C    0.000000
     7  Cl   1.687518   0.000000
     8  Cl   2.700070   3.149851   0.000000
     9  H    3.457678   4.889474   2.813068   0.000000
    10  Cl   4.524083   6.211413   5.363306   2.891802   0.000000
    11  H    2.204141   2.871822   4.902749   5.045731   4.850427
                   11
    11  H    0.000000
 Stoichiometry    C6H2Cl3(2)
 Framework group  CS[SG(C6H2Cl3)]
 Deg. of freedom    19
 Full point group                 CS      NOp   2
 Largest Abelian subgroup         CS      NOp   2
 Largest concise Abelian subgroup C1      NOp   1
                         Standard orientation:                         
 ---------------------------------------------------------------------
 Center     Atomic      Atomic             Coordinates (Angstroms)
 Number     Number       Type             X           Y           Z
 ---------------------------------------------------------------------
      1          6           0        0.000000    0.808593    0.000000
      2          6           0        1.230090    0.125194    0.000000
      3          6           0        1.241255   -1.286439    0.000000
      4          6           0        0.000852   -1.883747    0.000000
      5          6           0       -1.235336   -1.299917   -0.000000
      6          6           0       -1.233324    0.114727   -0.000000
      7         17           0       -2.706118    0.938495   -0.000000
      8         17           0        0.028359    2.501888    0.000000
      9          1           0        2.176833    0.686011    0.000000
     10         17           0        2.675898   -2.162402    0.000000
     11          1           0       -2.166426   -1.882159   -0.000000
 ---------------------------------------------------------------------
 Rotational constants (GHZ):           1.9218869           0.6056953           0.4605500
 Standard basis: 6-311++G(d,p) (5D, 7F)
 There are   183 symmetry adapted cartesian basis functions of A'  symmetry.
 There are    62 symmetry adapted cartesian basis functions of A"  symmetry.
 There are   174 symmetry adapted basis functions of A'  symmetry.
 There are    62 symmetry adapted basis functions of A"  symmetry.
   236 basis functions,   393 primitive gaussians,   245 cartesian basis functions
    45 alpha electrons       44 beta electrons
       nuclear repulsion energy       616.8208222066 Hartrees.
 NAtoms=   11 NActive=   11 NUniq=   11 SFac= 1.00D+00 NAtFMM=   60 NAOKFM=F Big=F
 Integral buffers will be    131072 words long.
 Raffenetti 2 integral format.
 Two-electron integral symmetry is turned on.
 One-electron integrals computed using PRISM.
 NBasis=   236 RedAO= T EigKep=  1.15D-06  NBF=   174    62
 NBsUse=   236 1.00D-06 EigRej= -1.00D+00 NBFU=   174    62
 Initial guess from the checkpoint file:  "frequency_chks/124_ClBzNeutralRadical_Freq.chk"
 B after Tr=     0.000000   -0.000000   -0.000000
         Rot=    1.000000    0.000000    0.000000    0.000000 Ang=   0.00 deg.
 Initial guess orbital symmetries:
 Alpha Orbitals:
       Occupied  (A') (A') (A') (A') (A') (A') (A') (A') (A') (A')
                 (A') (A') (A") (A') (A") (A') (A") (A') (A') (A')
                 (A") (A') (A") (A") (A") (A") (A') (A') (A') (A")
                 (A') (A') (A') (A') (A') (A') (A') (A') (A') (A')
                 (A') (A') (A') (A') (A')
       Virtual   (A') (A') (A') (A') (A') (A') (A') (A') (A') (A')
                 (A') (A') (A') (A') (A') (A') (A') (A') (A') (A')
                 (A') (A') (A') (A') (A') (A') (A') (A') (A') (A')
                 (A') (A') (A') (A') (A') (A') (A') (A') (A') (A')
                 (A') (A') (A') (A') (A') (A') (A') (A') (A') (A')
                 (A') (A') (A') (A') (A') (A') (A') (A') (A') (A')
                 (A') (A') (A') (A') (A') (A') (A') (A') (A') (A')
                 (A') (A') (A') (A') (A') (A') (A') (A') (A') (A')
                 (A') (A') (A') (A') (A') (A') (A') (A') (A') (A')
                 (A') (A') (A') (A') (A') (A') (A') (A') (A') (A')
                 (A') (A') (A') (A') (A') (A') (A') (A') (A') (A')
                 (A') (A') (A') (A') (A') (A') (A') (A') (A') (A')
                 (A') (A') (A') (A') (A') (A') (A') (A') (A') (A')
                 (A') (A') (A') (A') (A') (A') (A') (A') (A") (A")
                 (A") (A") (A") (A") (A") (A") (A") (A") (A") (A")
                 (A") (A") (A") (A") (A") (A") (A") (A") (A") (A")
                 (A") (A") (A") (A") (A") (A") (A") (A") (A") (A")
                 (A") (A") (A") (A") (A") (A") (A") (A") (A") (A")
                 (A") (A") (A") (A") (A") (A") (A") (A") (A") (A")
                 (A")
 Beta  Orbitals:
       Occupied  (A') (A') (A') (A') (A') (A') (A') (A') (A') (A')
                 (A') (A") (A') (A') (A") (A') (A") (A') (A') (A')
                 (A") (A") (A") (A') (A") (A") (A') (A') (A') (A")
                 (A') (A') (A') (A') (A') (A') (A') (A') (A') (A')
                 (A') (A') (A') (A')
       Virtual   (A') (A') (A') (A') (A') (A') (A') (A') (A') (A')
                 (A') (A') (A') (A') (A') (A') (A') (A') (A') (A')
                 (A') (A') (A') (A') (A') (A') (A') (A') (A') (A')
                 (A') (A') (A') (A') (A') (A') (A') (A') (A') (A')
                 (A') (A') (A') (A') (A') (A') (A') (A') (A') (A')
                 (A') (A') (A') (A') (A') (A') (A') (A') (A') (A')
                 (A') (A') (A') (A') (A') (A') (A') (A') (A') (A')
                 (A') (A') (A') (A') (A') (A') (A') (A') (A') (A')
                 (A') (A') (A') (A') (A') (A') (A') (A') (A') (A')
                 (A') (A') (A') (A') (A') (A') (A') (A') (A') (A')
                 (A') (A') (A') (A') (A') (A') (A') (A') (A') (A')
                 (A') (A') (A') (A') (A') (A') (A') (A') (A') (A')
                 (A') (A') (A') (A') (A') (A') (A') (A') (A') (A')
                 (A') (A') (A') (A') (A') (A') (A') (A') (A') (A")
                 (A") (A") (A") (A") (A") (A") (A") (A") (A") (A")
                 (A") (A") (A") (A") (A") (A") (A") (A") (A") (A")
                 (A") (A") (A") (A") (A") (A") (A") (A") (A") (A")
                 (A") (A") (A") (A") (A") (A") (A") (A") (A") (A")
                 (A") (A") (A") (A") (A") (A") (A") (A") (A") (A")
                 (A") (A")
 Initial guess <Sx>= 0.0000 <Sy>= 0.0000 <Sz>= 0.5000 <S**2>= 0.7500 S= 0.5000
 Keep R1 and R2 ints in memory in symmetry-blocked form, NReq=617299900.
 Requested convergence on RMS density matrix=1.00D-08 within 128 cycles.
 Requested convergence on MAX density matrix=1.00D-06.
 Requested convergence on             energy=1.00D-06.
 No special actions if energy rises.
 EnCoef did     3 forward-backward iterations
 EnCoef did     3 forward-backward iterations
 EnCoef did     4 forward-backward iterations
 SCF Done:  E(UM062X) =  -1610.30035221     A.U. after   32 cycles
            NFock= 32  Conv=0.88D-08     -V/T= 2.0023
 <Sx>= 0.0000 <Sy>= 0.0000 <Sz>= 0.5000 <S**2>= 0.7632 S= 0.5066
 <L.S>=  0.00000000000    
 Annihilation of the first spin contaminant:
 S**2 before annihilation     0.7632,   after     0.7501

 **********************************************************************

            Population analysis using the SCF Density.

 **********************************************************************

 Orbital symmetries:
 Alpha Orbitals:
       Occupied  (A') (A') (A') (A') (A') (A') (A') (A') (A') (A')
                 (A') (A') (A') (A') (A') (A") (A') (A") (A') (A")
                 (A') (A') (A') (A') (A') (A') (A') (A') (A') (A')
                 (A') (A') (A') (A") (A') (A') (A") (A") (A') (A')
                 (A") (A') (A') (A") (A")
       Virtual   (A") (A") (A') (A') (A') (A') (A') (A') (A") (A')
                 (A") (A') (A") (A') (A') (A') (A") (A') (A") (A')
                 (A') (A') (A") (A') (A") (A') (A') (A") (A') (A')
                 (A") (A') (A") (A') (A') (A') (A') (A') (A') (A')
                 (A') (A') (A') (A') (A') (A') (A') (A') (A') (A')
                 (A') (A') (A") (A') (A") (A') (A') (A") (A') (A')
                 (A') (A") (A') (A") (A') (A") (A") (A') (A") (A')
                 (A') (A") (A') (A') (A') (A') (A') (A") (A') (A')
                 (A") (A') (A') (A') (A") (A') (A") (A") (A') (A")
                 (A') (A') (A') (A') (A') (A") (A') (A') (A') (A")
                 (A') (A') (A") (A') (A') (A') (A") (A') (A') (A")
                 (A") (A') (A') (A') (A") (A') (A') (A") (A') (A')
                 (A') (A") (A') (A") (A") (A') (A') (A") (A') (A")
                 (A') (A') (A') (A') (A") (A") (A") (A") (A') (A')
                 (A') (A') (A') (A') (A') (A') (A') (A') (A") (A')
                 (A') (A") (A') (A") (A") (A") (A') (A") (A') (A')
                 (A') (A') (A') (A') (A') (A') (A') (A') (A') (A')
                 (A') (A') (A') (A') (A') (A') (A') (A') (A') (A")
                 (A") (A") (A') (A') (A') (A') (A') (A') (A') (A')
                 (A')
 Beta  Orbitals:
       Occupied  (A') (A') (A') (A') (A') (A') (A') (A') (A') (A')
                 (A') (A') (A') (A') (A') (A") (A') (A") (A') (A")
                 (A') (A') (A') (A') (A') (A') (A') (A') (A') (A')
                 (A') (A') (A') (A") (A') (A') (A") (A") (A') (A')
                 (A") (A') (A") (A")
       Virtual   (A') (A") (A") (A') (A') (A') (A') (A') (A") (A')
                 (A') (A") (A') (A") (A') (A') (A') (A") (A') (A")
                 (A') (A') (A') (A") (A') (A") (A') (A') (A") (A')
                 (A') (A") (A') (A') (A") (A') (A') (A') (A') (A')
                 (A') (A') (A') (A') (A') (A') (A') (A') (A') (A')
                 (A') (A') (A') (A") (A') (A") (A') (A') (A") (A')
                 (A') (A') (A") (A') (A') (A") (A') (A") (A") (A")
                 (A') (A') (A") (A') (A') (A') (A') (A') (A") (A')
                 (A') (A') (A") (A') (A') (A") (A') (A") (A") (A')
                 (A") (A') (A') (A') (A') (A') (A") (A') (A') (A')
                 (A") (A') (A') (A") (A') (A') (A') (A') (A") (A')
                 (A") (A") (A') (A') (A') (A") (A') (A') (A") (A')
                 (A') (A') (A") (A') (A") (A") (A') (A') (A") (A')
                 (A") (A') (A') (A') (A') (A") (A") (A") (A") (A')
                 (A') (A') (A') (A') (A') (A') (A') (A') (A') (A")
                 (A') (A') (A") (A') (A") (A") (A") (A') (A") (A')
                 (A') (A') (A') (A') (A') (A') (A') (A') (A') (A')
                 (A') (A') (A') (A') (A') (A') (A') (A') (A') (A')
                 (A") (A") (A") (A') (A') (A') (A') (A') (A') (A')
                 (A') (A')
 The electronic state is 2-A'.
 Alpha  occ. eigenvalues -- -102.69954-102.69856-102.69619 -10.64293 -10.63942
 Alpha  occ. eigenvalues --  -10.63758 -10.60389 -10.59579 -10.59372  -9.84295
 Alpha  occ. eigenvalues --   -9.84203  -9.83972  -7.56851  -7.56733  -7.56496
 Alpha  occ. eigenvalues --   -7.56111  -7.56108  -7.56041  -7.56012  -7.55792
 Alpha  occ. eigenvalues --   -7.55780  -1.05567  -1.01915  -0.98803  -0.94627
 Alpha  occ. eigenvalues --   -0.86624  -0.82729  -0.73603  -0.68819  -0.60509
 Alpha  occ. eigenvalues --   -0.59963  -0.56069  -0.53721  -0.52345  -0.50914
 Alpha  occ. eigenvalues --   -0.48327  -0.46970  -0.43681  -0.41497  -0.40068
 Alpha  occ. eigenvalues --   -0.39977  -0.39265  -0.33692  -0.33409  -0.30828
 Alpha virt. eigenvalues --   -0.02580  -0.01353  -0.00044   0.00957   0.01876
 Alpha virt. eigenvalues --    0.03180   0.04549   0.05316   0.05407   0.06503
 Alpha virt. eigenvalues --    0.06736   0.07236   0.08049   0.08456   0.08868
 Alpha virt. eigenvalues --    0.09480   0.11026   0.11498   0.11892   0.11923
 Alpha virt. eigenvalues --    0.12371   0.12765   0.12894   0.13400   0.14992
 Alpha virt. eigenvalues --    0.15041   0.15711   0.15907   0.17289   0.17692
 Alpha virt. eigenvalues --    0.18027   0.19042   0.19887   0.19965   0.21176
 Alpha virt. eigenvalues --    0.22233   0.22789   0.23937   0.24029   0.25172
 Alpha virt. eigenvalues --    0.25844   0.26355   0.28081   0.28197   0.29166
 Alpha virt. eigenvalues --    0.30567   0.31639   0.32184   0.32380   0.35134
 Alpha virt. eigenvalues --    0.43053   0.44350   0.45612   0.47110   0.47404
 Alpha virt. eigenvalues --    0.48576   0.49432   0.49746   0.50982   0.51804
 Alpha virt. eigenvalues --    0.53107   0.54378   0.56984   0.59059   0.59534
 Alpha virt. eigenvalues --    0.61019   0.61891   0.62523   0.63727   0.64796
 Alpha virt. eigenvalues --    0.66441   0.68679   0.69552   0.70175   0.72763
 Alpha virt. eigenvalues --    0.76338   0.79406   0.79646   0.85171   0.87116
 Alpha virt. eigenvalues --    0.87351   0.87362   0.88293   0.89020   0.90031
 Alpha virt. eigenvalues --    0.90390   0.90849   0.91600   0.92770   0.94285
 Alpha virt. eigenvalues --    0.95362   0.96501   0.97376   0.98717   0.99114
 Alpha virt. eigenvalues --    1.01958   1.03032   1.04344   1.07689   1.09148
 Alpha virt. eigenvalues --    1.11600   1.19587   1.20598   1.23824   1.26431
 Alpha virt. eigenvalues --    1.26858   1.29427   1.30239   1.33254   1.33953
 Alpha virt. eigenvalues --    1.36845   1.44246   1.49446   1.52941   1.58190
 Alpha virt. eigenvalues --    1.59701   1.65070   1.68150   1.72403   1.74746
 Alpha virt. eigenvalues --    1.77720   1.79358   1.85473   1.87979   1.92920
 Alpha virt. eigenvalues --    1.93519   1.98237   2.00341   2.01662   2.10087
 Alpha virt. eigenvalues --    2.10383   2.15464   2.21596   2.25885   2.27164
 Alpha virt. eigenvalues --    2.29305   2.30851   2.33076   2.35907   2.41952
 Alpha virt. eigenvalues --    2.43264   2.48034   2.50336   2.53000   2.54325
 Alpha virt. eigenvalues --    2.59543   2.63430   2.64975   2.66827   2.72324
 Alpha virt. eigenvalues --    2.75566   2.79297   2.79769   2.82384   2.90276
 Alpha virt. eigenvalues --    2.91580   2.94601   3.09120   3.13332   3.14856
 Alpha virt. eigenvalues --    3.23844   3.29830   3.34720   3.50020   3.53811
 Alpha virt. eigenvalues --    3.76014   3.85548   3.96050   4.12393   4.75637
 Alpha virt. eigenvalues --    9.93453   9.98728  10.00631  23.42576  23.84189
 Alpha virt. eigenvalues --   23.92409  24.01401  24.05909  24.19722  25.88437
 Alpha virt. eigenvalues --   25.92101  25.96869  26.17304  26.20629  26.32107
 Alpha virt. eigenvalues --   26.59245  26.71593  26.93955 216.03116 216.09034
 Alpha virt. eigenvalues --  216.11415
  Beta  occ. eigenvalues -- -102.69927-102.69841-102.69624 -10.64193 -10.63975
  Beta  occ. eigenvalues --  -10.63790 -10.59515 -10.59450 -10.59362  -9.84283
  Beta  occ. eigenvalues --   -9.84198  -9.83974  -7.56781  -7.56707  -7.56494
  Beta  occ. eigenvalues --   -7.56118  -7.56087  -7.56028  -7.56001  -7.55812
  Beta  occ. eigenvalues --   -7.55782  -1.05251  -1.01607  -0.98729  -0.93835
  Beta  occ. eigenvalues --   -0.85978  -0.81676  -0.73023  -0.67655  -0.59657
  Beta  occ. eigenvalues --   -0.59250  -0.55315  -0.53387  -0.52033  -0.50093
  Beta  occ. eigenvalues --   -0.47851  -0.46805  -0.43651  -0.41137  -0.39865
  Beta  occ. eigenvalues --   -0.39392  -0.38995  -0.33013  -0.30263
  Beta virt. eigenvalues --   -0.08222  -0.02599  -0.00302   0.00018   0.01012
  Beta virt. eigenvalues --    0.01747   0.03543   0.04630   0.05272   0.05335
  Beta virt. eigenvalues --    0.06178   0.06840   0.07219   0.07992   0.08794
  Beta virt. eigenvalues --    0.08887   0.09512   0.10978   0.11335   0.11566
  Beta virt. eigenvalues --    0.11919   0.12218   0.12826   0.12893   0.13439
  Beta virt. eigenvalues --    0.14768   0.15121   0.15624   0.16440   0.16978
  Beta virt. eigenvalues --    0.17876   0.18393   0.19246   0.19923   0.19971
  Beta virt. eigenvalues --    0.20925   0.22169   0.22962   0.23762   0.23974
  Beta virt. eigenvalues --    0.25134   0.25548   0.26642   0.28059   0.28454
  Beta virt. eigenvalues --    0.28491   0.30630   0.32046   0.32203   0.32803
  Beta virt. eigenvalues --    0.35793   0.42888   0.44528   0.45618   0.46720
  Beta virt. eigenvalues --    0.47485   0.48659   0.49624   0.49750   0.50992
  Beta virt. eigenvalues --    0.51885   0.53234   0.54567   0.56770   0.57769
  Beta virt. eigenvalues --    0.59262   0.60867   0.61091   0.61930   0.63701
  Beta virt. eigenvalues --    0.65002   0.67104   0.68514   0.69210   0.70755
  Beta virt. eigenvalues --    0.73332   0.75932   0.79359   0.79780   0.85220
  Beta virt. eigenvalues --    0.86668   0.87370   0.87496   0.88383   0.89085
  Beta virt. eigenvalues --    0.90091   0.90406   0.90850   0.91606   0.92538
  Beta virt. eigenvalues --    0.94291   0.95570   0.96234   0.97248   0.98713
  Beta virt. eigenvalues --    0.99329   1.02401   1.02994   1.04258   1.07394
  Beta virt. eigenvalues --    1.09806   1.12134   1.19342   1.22076   1.23618
  Beta virt. eigenvalues --    1.26066   1.26928   1.30057   1.30300   1.33242
  Beta virt. eigenvalues --    1.34239   1.37225   1.45754   1.50027   1.54031
  Beta virt. eigenvalues --    1.58489   1.59906   1.66032   1.68324   1.73590
  Beta virt. eigenvalues --    1.74866   1.78213   1.79912   1.85871   1.88059
  Beta virt. eigenvalues --    1.93519   1.93762   1.98766   2.00550   2.02104
  Beta virt. eigenvalues --    2.10391   2.10880   2.15602   2.21905   2.26459
  Beta virt. eigenvalues --    2.27163   2.29387   2.31233   2.33107   2.35884
  Beta virt. eigenvalues --    2.42360   2.43530   2.48189   2.50819   2.53364
  Beta virt. eigenvalues --    2.54576   2.59975   2.63819   2.65138   2.66945
  Beta virt. eigenvalues --    2.72299   2.75631   2.79763   2.80183   2.82390
  Beta virt. eigenvalues --    2.90427   2.91375   2.97002   3.09195   3.13716
  Beta virt. eigenvalues --    3.15854   3.24159   3.29962   3.35186   3.50555
  Beta virt. eigenvalues --    3.54205   3.76315   3.85599   3.96415   4.12719
  Beta virt. eigenvalues --    4.75846   9.93457   9.98732  10.00632  23.42699
  Beta virt. eigenvalues --   23.84316  23.92439  24.01568  24.05929  24.20382
  Beta virt. eigenvalues --   25.88434  25.92100  25.96863  26.17339  26.20651
  Beta virt. eigenvalues --   26.32119  26.59283  26.71759  26.93997 216.03131
  Beta virt. eigenvalues --  216.09070 216.11421
          Condensed to atoms (all electrons):
               1          2          3          4          5          6
     1  C   25.864483  -9.405142   0.429528  -3.786496  -0.131915  -6.366125
     2  C   -9.405142  37.917618  -7.586871  -1.228034 -13.464357  -0.662844
     3  C    0.429528  -7.586871  18.762759  -2.007438   2.742794  -4.782870
     4  C   -3.786496  -1.228034  -2.007438  15.603573  -0.749185  -1.474115
     5  C   -0.131915 -13.464357   2.742794  -0.749185  23.386265  -5.127005
     6  C   -6.366125  -0.662844  -4.782870  -1.474115  -5.127005  24.919186
     7  Cl   0.073139   0.758407  -0.039065   0.137436  -0.558128  -1.028893
     8  Cl  -0.760682  -0.647509   0.004703  -0.008700   0.687791   0.046441
     9  H   -0.112680   0.692165  -0.183898  -0.013903  -0.120060   0.010665
    10  Cl  -0.026309   0.711816  -1.297801  -0.534995   0.069968   0.214952
    11  H   -0.022421  -0.083165  -0.057269   0.088344   0.506639  -0.105791
               7          8          9         10         11
     1  C    0.073139  -0.760682  -0.112680  -0.026309  -0.022421
     2  C    0.758407  -0.647509   0.692165   0.711816  -0.083165
     3  C   -0.039065   0.004703  -0.183898  -1.297801  -0.057269
     4  C    0.137436  -0.008700  -0.013903  -0.534995   0.088344
     5  C   -0.558128   0.687791  -0.120060   0.069968   0.506639
     6  C   -1.028893   0.046441   0.010665   0.214952  -0.105791
     7  Cl  17.480628  -0.230384  -0.005093  -0.015184  -0.004130
     8  Cl  -0.230384  17.505583   0.000143  -0.015796   0.000553
     9  H   -0.005093   0.000143   0.477482   0.036360  -0.000137
    10  Cl  -0.015184  -0.015796   0.036360  17.486473  -0.003764
    11  H   -0.004130   0.000553  -0.000137  -0.003764   0.468574
          Atomic-Atomic Spin Densities.
               1          2          3          4          5          6
     1  C   -0.025999  -0.531732   0.466127  -0.027575   0.041558   0.115603
     2  C   -0.531732   1.868771  -1.494781   1.126432  -1.145361   0.168576
     3  C    0.466127  -1.494781   0.964125  -1.123487   1.524630  -0.069055
     4  C   -0.027575   1.126432  -1.123487   2.191478  -1.659034   0.140650
     5  C    0.041558  -1.145361   1.524630  -1.659034   1.852506  -0.592589
     6  C    0.115603   0.168576  -0.069055   0.140650  -0.592589   0.267733
     7  Cl  -0.024141  -0.057989   0.040967  -0.054211   0.126805  -0.046527
     8  Cl   0.012805  -0.041702   0.018232  -0.045939   0.042552   0.011017
     9  H   -0.030103   0.025824  -0.014875   0.043644  -0.010489  -0.016891
    10  Cl  -0.041220   0.128019  -0.037381  -0.019611  -0.060748   0.013153
    11  H    0.003676   0.003596  -0.023410   0.031757  -0.016380  -0.012227
               7          8          9         10         11
     1  C   -0.024141   0.012805  -0.030103  -0.041220   0.003676
     2  C   -0.057989  -0.041702   0.025824   0.128019   0.003596
     3  C    0.040967   0.018232  -0.014875  -0.037381  -0.023410
     4  C   -0.054211  -0.045939   0.043644  -0.019611   0.031757
     5  C    0.126805   0.042552  -0.010489  -0.060748  -0.016380
     6  C   -0.046527   0.011017  -0.016891   0.013153  -0.012227
     7  Cl   0.022413   0.006332  -0.000357  -0.000528   0.001581
     8  Cl   0.006332  -0.007167  -0.001857   0.001205  -0.000785
     9  H   -0.000357  -0.001857   0.016447  -0.001138   0.000220
    10  Cl  -0.000528   0.001205  -0.001138   0.027350  -0.000714
    11  H    0.001581  -0.000785   0.000220  -0.000714   0.038094
 Mulliken charges and spin densities:
               1          2
     1  C    0.244620  -0.041002
     2  C   -1.002084   0.049655
     3  C    0.015428   0.251094
     4  C   -0.026488   0.604103
     5  C   -1.242806   0.103448
     6  C    0.356399  -0.020557
     7  Cl   0.431268   0.014344
     8  Cl   0.417856  -0.005307
     9  H    0.218957   0.010426
    10  Cl   0.374281   0.008388
    11  H    0.212568   0.025408
 Sum of Mulliken charges =  -0.00000   1.00000
 Mulliken charges and spin densities with hydrogens summed into heavy atoms:
               1          2
     1  C    0.244620  -0.041002
     2  C   -0.783127   0.060080
     3  C    0.015428   0.251094
     4  C   -0.026488   0.604103
     5  C   -1.030238   0.128856
     6  C    0.356399  -0.020557
     7  Cl   0.431268   0.014344
     8  Cl   0.417856  -0.005307
    10  Cl   0.374281   0.008388
 Electronic spatial extent (au):  <R**2>=           2098.6319
 Charge=             -0.0000 electrons
 Dipole moment (field-independent basis, Debye):
    X=             -0.0775    Y=             -0.4677    Z=              0.0000  Tot=              0.4740
 Quadrupole moment (field-independent basis, Debye-Ang):
   XX=            -69.3881   YY=            -72.8424   ZZ=            -74.2115
   XY=              3.9951   XZ=             -0.0000   YZ=              0.0000
 Traceless Quadrupole moment (field-independent basis, Debye-Ang):
   XX=              2.7592   YY=             -0.6951   ZZ=             -2.0641
   XY=              3.9951   XZ=             -0.0000   YZ=              0.0000
 Octapole moment (field-independent basis, Debye-Ang**2):
  XXX=             -0.3536  YYY=             14.3713  ZZZ=              0.0000  XYY=             -5.4040
  XXY=              0.9387  XXZ=              0.0000  XZZ=              0.0202  YZZ=              4.3628
  YYZ=              0.0000  XYZ=             -0.0000
 Hexadecapole moment (field-independent basis, Debye-Ang**3):
 XXXX=          -1353.5523 YYYY=          -1220.6092 ZZZZ=            -85.6451 XXXY=            292.8577
 XXXZ=             -0.0000 YYYX=            306.4935 YYYZ=              0.0000 ZZZX=             -0.0000
 ZZZY=              0.0000 XXYY=           -416.8792 XXZZ=           -256.6159 YYZZ=           -228.0306
 XXYZ=              0.0000 YYXZ=             -0.0000 ZZXY=            101.3619
 N-N= 6.168208222066D+02 E-N=-5.048005561755D+03  KE= 1.606558535750D+03
 Symmetry A'   KE= 1.462238876308D+03
 Symmetry A"   KE= 1.443196594420D+02
 Symmetry A'   SP= 1.000000000000D+00
 Symmetry A"   SP= 2.758319594053D-15
                          Isotropic Fermi Contact Couplings
        Atom                 a.u.       MegaHertz       Gauss      10(-4) cm-1
     1  C(13)             -0.01002     -11.26893      -4.02104      -3.75891
     2  C(13)              0.03669      41.24217      14.71623      13.75691
     3  C(13)             -0.01170     -13.15865      -4.69533      -4.38925
     4  C(13)              0.43123     484.78901     172.98477     161.70821
     5  C(13)              0.00643       7.22538       2.57820       2.41013
     6  C(13)              0.06659      74.85578      26.71040      24.96920
     7  Cl(35)             0.00070       0.30596       0.10917       0.10206
     8  Cl(35)             0.00180       0.79135       0.28237       0.26396
     9  H(1)               0.00451      20.15322       7.19117       6.72239
    10  Cl(35)             0.02019       8.85290       3.15893       2.95301
    11  H(1)               0.01286      57.48136      20.51078      19.17372
 --------------------------------------------------------
       Center         ----  Spin Dipole Couplings  ----
                      3XX-RR        3YY-RR        3ZZ-RR
 --------------------------------------------------------
     1   Atom        0.021785      0.036313     -0.058098
     2   Atom       -0.032541      0.034884     -0.002343
     3   Atom        0.091756      0.012705     -0.104461
     4   Atom       -0.576266      0.972208     -0.395942
     5   Atom        0.064354      0.034724     -0.099078
     6   Atom       -0.037615      0.040034     -0.002418
     7   Atom       -0.023686      0.038915     -0.015229
     8   Atom        0.016965      0.032183     -0.049148
     9   Atom        0.003317      0.001452     -0.004769
    10   Atom        0.184916     -0.054822     -0.130094
    11   Atom        0.020865     -0.009092     -0.011773
 --------------------------------------------------------
                        XY            XZ            YZ
 --------------------------------------------------------
     1   Atom       -0.000866      0.000000      0.000000
     2   Atom        0.013674      0.000000      0.000000
     3   Atom        0.063374      0.000000      0.000000
     4   Atom        0.004046     -0.000000     -0.000000
     5   Atom       -0.048639      0.000000     -0.000000
     6   Atom        0.004818      0.000000     -0.000000
     7   Atom       -0.056592      0.000000      0.000000
     8   Atom       -0.000689      0.000000     -0.000000
     9   Atom        0.006708      0.000000      0.000000
    10   Atom       -0.038549     -0.000000     -0.000000
    11   Atom       -0.006287      0.000000     -0.000000
 --------------------------------------------------------


 ---------------------------------------------------------------------------------
              Anisotropic Spin Dipole Couplings in Principal Axis System
 ---------------------------------------------------------------------------------

       Atom             a.u.   MegaHertz   Gauss  10(-4) cm-1        Axes

              Baa    -0.0581    -7.796    -2.782    -2.601  0.0000  0.0000  1.0000
     1 C(13)  Bbb     0.0217     2.916     1.041     0.973  0.9982  0.0593  0.0000
              Bcc     0.0364     4.880     1.741     1.628 -0.0593  0.9982 -0.0000
 
              Baa    -0.0352    -4.725    -1.686    -1.576  0.9815 -0.1915 -0.0000
     2 C(13)  Bbb    -0.0023    -0.314    -0.112    -0.105  0.0000  0.0000  1.0000
              Bcc     0.0376     5.039     1.798     1.681  0.1915  0.9815 -0.0000
 
              Baa    -0.1045   -14.018    -5.002    -4.676  0.0000  0.0000  1.0000
     3 C(13)  Bbb    -0.0225    -3.014    -1.075    -1.005 -0.4852  0.8744  0.0000
              Bcc     0.1269    17.031     6.077     5.681  0.8744  0.4852 -0.0000
 
              Baa    -0.5763   -77.331   -27.594   -25.795  1.0000 -0.0026  0.0000
     4 C(13)  Bbb    -0.3959   -53.132   -18.959   -17.723  0.0000  0.0000  1.0000
              Bcc     0.9722   130.462    46.552    43.518  0.0026  1.0000 -0.0000
 
              Baa    -0.0991   -13.295    -4.744    -4.435  0.0000  0.0000  1.0000
     5 C(13)  Bbb    -0.0013    -0.175    -0.063    -0.058  0.5952  0.8035  0.0000
              Bcc     0.1004    13.471     4.807     4.493  0.8035 -0.5952  0.0000
 
              Baa    -0.0379    -5.088    -1.815    -1.697  0.9981 -0.0617  0.0000
     6 C(13)  Bbb    -0.0024    -0.325    -0.116    -0.108  0.0000  0.0000  1.0000
              Bcc     0.0403     5.412     1.931     1.805  0.0617  0.9981 -0.0000
 
              Baa    -0.0571    -2.986    -1.066    -0.996  0.8614  0.5079 -0.0000
     7 Cl(35) Bbb    -0.0152    -0.797    -0.284    -0.266  0.0000  0.0000  1.0000
              Bcc     0.0723     3.783     1.350     1.262 -0.5079  0.8614 -0.0000
 
              Baa    -0.0491    -2.572    -0.918    -0.858  0.0000  0.0000  1.0000
     8 Cl(35) Bbb     0.0169     0.886     0.316     0.296  0.9990  0.0452  0.0000
              Bcc     0.0322     1.686     0.602     0.562 -0.0452  0.9990 -0.0000
 
              Baa    -0.0048    -2.544    -0.908    -0.849  0.0000  0.0000  1.0000
     9 H(1)   Bbb    -0.0044    -2.341    -0.835    -0.781 -0.6566  0.7542 -0.0000
              Bcc     0.0092     4.886     1.743     1.630  0.7542  0.6566 -0.0000
 
              Baa    -0.1301    -6.809    -2.430    -2.271  0.0000  0.0000  1.0000
    10 Cl(35) Bbb    -0.0609    -3.186    -1.137    -1.063  0.1549  0.9879 -0.0000
              Bcc     0.1910     9.994     3.566     3.334  0.9879 -0.1549 -0.0000
 
              Baa    -0.0118    -6.281    -2.241    -2.095  0.0000  0.0000  1.0000
    11 H(1)   Bbb    -0.0104    -5.526    -1.972    -1.843  0.1974  0.9803  0.0000
              Bcc     0.0221    11.808     4.213     3.939  0.9803 -0.1974  0.0000
 

 ---------------------------------------------------------------------------------

 Calling FoFJK, ICntrl=      2127 FMM=F ISym2X=1 I1Cent= 0 IOpClX= 1 NMat=1 NMatS=1 NMatT=0.
 ***** Axes restored to original set *****
 -------------------------------------------------------------------
 Center     Atomic                   Forces (Hartrees/Bohr)
 Number     Number              X              Y              Z
 -------------------------------------------------------------------
      1        6           0.024887745   -0.012323330    0.000000000
      2        6           0.005283215   -0.004140094   -0.000000000
      3        6          -0.044120051   -0.013507809   -0.000000000
      4        6           0.011029788   -0.002738398    0.000000000
      5        6          -0.007274257    0.008839803    0.000000000
      6        6           0.027570470    0.013251738    0.000000000
      7       17          -0.018794266   -0.011287321   -0.000000000
      8       17          -0.017950723    0.010182684    0.000000000
      9        1          -0.000703226   -0.011609855   -0.000000000
     10       17           0.022549023    0.012705667    0.000000000
     11        1          -0.002477718    0.010626915    0.000000000
 -------------------------------------------------------------------
 Cartesian Forces:  Max     0.044120051 RMS     0.013452608

 GradGradGradGradGradGradGradGradGradGradGradGradGradGradGradGradGradGrad
 Berny optimization.
 FormGI is forming the generalized inverse of G from B-inverse, IUseBI=4.
 Internal  Forces:  Max     0.025880622 RMS     0.007809018
 Search for a local minimum.
 Step number   1 out of a maximum of   57
 All quantities printed in internal units (Hartrees-Bohrs-Radians)
 Mixed Optimization -- RFO/linear search
 Second derivative matrix not updated -- first step.
 ITU=  0
     Eigenvalues ---    0.01892   0.01922   0.01936   0.01966   0.01994
     Eigenvalues ---    0.02077   0.02122   0.02376   0.16000   0.16000
     Eigenvalues ---    0.22927   0.23946   0.25000   0.25000   0.25000
     Eigenvalues ---    0.25000   0.33640   0.33887   0.36680   0.37436
     Eigenvalues ---    0.38288   0.40519   0.41576   0.43498   0.43906
     Eigenvalues ---    0.48477   0.50617
 RFO step:  Lambda=-7.79143219D-03 EMin= 1.89185838D-02
 Linear search not attempted -- first point.
 Iteration  1 RMS(Cart)=  0.02389512 RMS(Int)=  0.00022249
 Iteration  2 RMS(Cart)=  0.00028819 RMS(Int)=  0.00004801
 Iteration  3 RMS(Cart)=  0.00000005 RMS(Int)=  0.00004801
 ClnCor:  largest displacement from symmetrization is 1.20D-12 for atom     9.
 Variable       Old X    -DE/DX   Delta X   Delta X   Delta X     New X
                                 (Linear)    (Quad)   (Total)
    R1        2.65918  -0.01248   0.00000  -0.02809  -0.02815   2.63103
    R2        2.67417  -0.01225   0.00000  -0.02827  -0.02834   2.64583
    R3        3.20031   0.02064   0.00000   0.05509   0.05509   3.25541
    R4        2.66768  -0.01406   0.00000  -0.03168  -0.03166   2.63602
    R5        2.07942  -0.01158   0.00000  -0.03363  -0.03363   2.04578
    R6        2.60164  -0.00685   0.00000  -0.01317  -0.01310   2.58853
    R7        3.17649   0.02588   0.00000   0.06625   0.06625   3.24274
    R8        2.58348  -0.00347   0.00000  -0.00620  -0.00614   2.57735
    R9        2.67329  -0.01139   0.00000  -0.02578  -0.02579   2.64750
   R10        2.07520  -0.01076   0.00000  -0.03103  -0.03103   2.04417
   R11        3.18895   0.02192   0.00000   0.05736   0.05736   3.24630
    A1        2.12202  -0.00278   0.00000  -0.01333  -0.01347   2.10855
    A2        2.06116   0.00136   0.00000   0.00656   0.00663   2.06779
    A3        2.10001   0.00142   0.00000   0.00677   0.00684   2.10684
    A4        2.08581   0.00369   0.00000   0.01394   0.01389   2.09970
    A5        2.09970  -0.00301   0.00000  -0.01393  -0.01390   2.08580
    A6        2.09767  -0.00068   0.00000  -0.00002   0.00001   2.09768
    A7        2.01166   0.00524   0.00000   0.01995   0.02003   2.03169
    A8        2.12687  -0.00217   0.00000  -0.00821  -0.00825   2.11861
    A9        2.14466  -0.00307   0.00000  -0.01174  -0.01178   2.13288
   A10        2.25159  -0.01328   0.00000  -0.05071  -0.05053   2.20106
   A11        2.01060   0.00759   0.00000   0.03346   0.03350   2.04410
   A12        2.14152  -0.00189   0.00000  -0.00539  -0.00541   2.13612
   A13        2.13106  -0.00570   0.00000  -0.02807  -0.02809   2.10297
   A14        2.08468  -0.00047   0.00000  -0.00332  -0.00342   2.08127
   A15        2.11916  -0.00052   0.00000  -0.00126  -0.00121   2.11794
   A16        2.07935   0.00099   0.00000   0.00458   0.00463   2.08397
    D1       -0.00000   0.00000   0.00000   0.00000   0.00000   0.00000
    D2        3.14159   0.00000   0.00000   0.00000   0.00000   3.14159
    D3        3.14159  -0.00000   0.00000  -0.00000   0.00000   3.14159
    D4        0.00000  -0.00000   0.00000  -0.00000   0.00000   0.00000
    D5        0.00000  -0.00000   0.00000  -0.00000   0.00000   0.00000
    D6        3.14159  -0.00000   0.00000  -0.00000   0.00000   3.14159
    D7        3.14159   0.00000   0.00000   0.00000   0.00000   3.14159
    D8        0.00000   0.00000   0.00000   0.00000   0.00000   0.00000
    D9       -0.00000   0.00000   0.00000  -0.00000   0.00000   0.00000
   D10        3.14159   0.00000   0.00000   0.00000   0.00000   3.14159
   D11        3.14159  -0.00000   0.00000  -0.00000   0.00000   3.14159
   D12       -0.00000   0.00000   0.00000   0.00000   0.00000   0.00000
   D13        0.00000  -0.00000   0.00000   0.00000  -0.00000   0.00000
   D14        3.14159   0.00000   0.00000  -0.00000   0.00000   3.14159
   D15       -0.00000  -0.00000   0.00000  -0.00000   0.00000   0.00000
   D16        3.14159   0.00000   0.00000   0.00000   0.00000   3.14159
   D17        0.00000   0.00000   0.00000   0.00000  -0.00000   0.00000
   D18        3.14159   0.00000   0.00000   0.00000   0.00000   3.14159
   D19        3.14159   0.00000   0.00000  -0.00000   0.00000   3.14159
   D20       -0.00000   0.00000   0.00000  -0.00000   0.00000   0.00000
         Item               Value     Threshold  Converged?
 Maximum Force            0.025881     0.000450     NO 
 RMS     Force            0.007809     0.000300     NO 
 Maximum Displacement     0.082995     0.001800     NO 
 RMS     Displacement     0.023915     0.001200     NO 
 Predicted change in Energy=-3.981382D-03
 GradGradGradGradGradGradGradGradGradGradGradGradGradGradGradGradGradGrad

                          Input orientation:                          
 ---------------------------------------------------------------------
 Center     Atomic      Atomic             Coordinates (Angstroms)
 Number     Number       Type             X           Y           Z
 ---------------------------------------------------------------------
      1          6           0       -3.196531    0.192155   -0.000000
      2          6           0       -2.013279    0.925888    0.000000
      3          6           0       -0.780414    0.273314    0.000000
      4          6           0       -0.815927   -1.096019    0.000000
      5          6           0       -1.938231   -1.870993   -0.000000
      6          6           0       -3.172291   -1.207749   -0.000000
      7         17           0       -4.623678   -2.126742   -0.000000
      8         17           0       -4.692594    1.046230    0.000000
      9          1           0       -2.056641    2.007601    0.000000
     10         17           0        0.694781    1.149896    0.000000
     11          1           0       -1.896037   -2.951901   -0.000000
 ---------------------------------------------------------------------
                    Distance matrix (angstroms):
                    1          2          3          4          5
     1  C    0.000000
     2  C    1.392282   0.000000
     3  C    2.417480   1.394923   0.000000
     4  C    2.706782   2.349842   1.369794   0.000000
     5  C    2.416588   2.797888   2.436924   1.363874   0.000000
     6  C    1.400113   2.428109   2.813294   2.359011   1.400998
     7  Cl   2.722872   4.016557   4.531109   3.944789   2.697597
     8  Cl   1.722686   2.682016   3.987801   4.429196   4.012070
     9  H    2.143641   1.082582   2.153255   3.342429   3.880402
    10  Cl   4.007440   2.717309   1.715982   2.706727   4.007309
    11  H    3.402406   3.879560   3.412715   2.147309   1.081730
                    6          7          8          9         10
     6  C    0.000000
     7  Cl   1.717869   0.000000
     8  Cl   2.718776   3.173721   0.000000
     9  H    3.403403   4.866464   2.805794   0.000000
    10  Cl   4.529098   6.246788   5.388372   2.882009   0.000000
    11  H    2.161224   2.849721   4.879117   4.962102   4.851502
                   11
    11  H    0.000000
 Stoichiometry    C6H2Cl3(2)
 Framework group  CS[SG(C6H2Cl3)]
 Deg. of freedom    19
 Full point group                 CS      NOp   2
 Largest Abelian subgroup         CS      NOp   2
 Largest concise Abelian subgroup C1      NOp   1
                         Standard orientation:                         
 ---------------------------------------------------------------------
 Center     Atomic      Atomic             Coordinates (Angstroms)
 Number     Number       Type             X           Y           Z
 ---------------------------------------------------------------------
      1          6           0       -0.000000    0.796854    0.000000
      2          6           0        1.206386    0.101811   -0.000000
      3          6           0        1.215060   -1.293084   -0.000000
      4          6           0       -0.007991   -1.909917   -0.000000
      5          6           0       -1.221859   -1.288083    0.000000
      6          6           0       -1.221698    0.112916    0.000000
      7         17           0       -2.718189    0.956472    0.000000
      8         17           0        0.044256    2.518972    0.000000
      9          1           0        2.138741    0.651992   -0.000000
     10         17           0        2.685459   -2.177686   -0.000000
     11          1           0       -2.154056   -1.836853    0.000000
 ---------------------------------------------------------------------
 Rotational constants (GHZ):           1.9110926           0.6004829           0.4569158
 Standard basis: 6-311++G(d,p) (5D, 7F)
 There are   183 symmetry adapted cartesian basis functions of A'  symmetry.
 There are    62 symmetry adapted cartesian basis functions of A"  symmetry.
 There are   174 symmetry adapted basis functions of A'  symmetry.
 There are    62 symmetry adapted basis functions of A"  symmetry.
   236 basis functions,   393 primitive gaussians,   245 cartesian basis functions
    45 alpha electrons       44 beta electrons
       nuclear repulsion energy       614.8779162896 Hartrees.
 NAtoms=   11 NActive=   11 NUniq=   11 SFac= 1.00D+00 NAtFMM=   60 NAOKFM=F Big=F
 Integral buffers will be    131072 words long.
 Raffenetti 2 integral format.
 Two-electron integral symmetry is turned on.
 One-electron integrals computed using PRISM.
 NBasis=   236 RedAO= T EigKep=  1.10D-06  NBF=   174    62
 NBsUse=   236 1.00D-06 EigRej= -1.00D+00 NBFU=   174    62
 Initial guess from the checkpoint file:  "frequency_chks/124_ClBzNeutralRadical_Freq.chk"
 B after Tr=     0.000000    0.000000    0.000000
         Rot=    0.999998    0.000000    0.000000    0.002068 Ang=   0.24 deg.
 Initial guess orbital symmetries:
 Alpha Orbitals:
       Occupied  (A') (A') (A') (A') (A') (A') (A') (A') (A') (A')
                 (A') (A') (A') (A') (A') (A") (A') (A") (A') (A")
                 (A') (A') (A') (A') (A') (A') (A') (A') (A') (A')
                 (A') (A') (A') (A") (A') (A') (A") (A") (A') (A')
                 (A") (A') (A') (A") (A")
       Virtual   (A") (A") (A') (A') (A') (A') (A') (A') (A") (A')
                 (A") (A') (A") (A') (A') (A') (A") (A') (A") (A')
                 (A') (A') (A") (A') (A") (A') (A') (A") (A') (A')
                 (A") (A') (A") (A') (A') (A') (A') (A') (A') (A')
                 (A') (A') (A') (A') (A') (A') (A') (A') (A') (A')
                 (A') (A') (A") (A') (A") (A') (A') (A") (A') (A')
                 (A') (A") (A') (A") (A') (A") (A") (A') (A") (A')
                 (A') (A") (A') (A') (A') (A') (A') (A") (A') (A')
                 (A") (A') (A') (A') (A") (A') (A") (A") (A') (A")
                 (A') (A') (A') (A') (A') (A") (A') (A') (A') (A")
                 (A') (A') (A") (A') (A') (A') (A") (A') (A') (A")
                 (A") (A') (A') (A') (A") (A') (A') (A") (A') (A')
                 (A') (A") (A') (A") (A") (A') (A') (A") (A') (A")
                 (A') (A') (A') (A') (A") (A") (A") (A") (A') (A')
                 (A') (A') (A') (A') (A') (A') (A') (A') (A") (A')
                 (A') (A") (A') (A") (A") (A") (A') (A") (A') (A')
                 (A') (A') (A') (A') (A') (A') (A') (A') (A') (A')
                 (A') (A') (A') (A') (A') (A') (A') (A') (A') (A")
                 (A") (A") (A') (A') (A') (A') (A') (A') (A') (A')
                 (A')
 Beta  Orbitals:
       Occupied  (A') (A') (A') (A') (A') (A') (A') (A') (A') (A')
                 (A') (A') (A') (A') (A') (A") (A') (A") (A') (A")
                 (A') (A') (A') (A') (A') (A') (A') (A') (A') (A')
                 (A') (A') (A') (A") (A') (A') (A") (A") (A') (A')
                 (A") (A') (A") (A")
       Virtual   (A') (A") (A") (A') (A') (A') (A') (A') (A") (A')
                 (A') (A") (A') (A") (A') (A') (A') (A") (A') (A")
                 (A') (A') (A') (A") (A') (A") (A') (A') (A") (A')
                 (A') (A") (A') (A') (A") (A') (A') (A') (A') (A')
                 (A') (A') (A') (A') (A') (A') (A') (A') (A') (A')
                 (A') (A') (A') (A") (A') (A") (A') (A') (A") (A')
                 (A') (A') (A") (A') (A') (A") (A') (A") (A") (A")
                 (A') (A') (A") (A') (A') (A') (A') (A') (A") (A')
                 (A') (A') (A") (A') (A') (A") (A') (A") (A") (A')
                 (A") (A') (A') (A') (A') (A') (A") (A') (A') (A')
                 (A") (A') (A') (A") (A') (A') (A') (A') (A") (A')
                 (A") (A") (A') (A') (A') (A") (A') (A') (A") (A')
                 (A') (A') (A") (A') (A") (A") (A') (A') (A") (A')
                 (A") (A') (A') (A') (A') (A") (A") (A") (A") (A')
                 (A') (A') (A') (A') (A') (A') (A') (A') (A') (A")
                 (A') (A') (A") (A') (A") (A") (A") (A') (A") (A')
                 (A') (A') (A') (A') (A') (A') (A') (A') (A') (A')
                 (A') (A') (A') (A') (A') (A') (A') (A') (A') (A')
                 (A") (A") (A") (A') (A') (A') (A') (A') (A') (A')
                 (A') (A')
 Initial guess <Sx>= 0.0000 <Sy>= 0.0000 <Sz>= 0.5000 <S**2>= 0.7632 S= 0.5066
 ExpMin= 3.60D-02 ExpMax= 1.06D+05 ExpMxC= 3.62D+03 IAcc=3 IRadAn=         5 AccDes= 0.00D+00
 Harris functional with IExCor= 1009 and IRadAn=       5 diagonalized for initial guess.
 HarFok:  IExCor= 1009 AccDes= 0.00D+00 IRadAn=         5 IDoV= 1 UseB2=F ITyADJ=14
 ICtDFT=  3500011 ScaDFX=  1.000000  1.000000  1.000000  1.000000
 FoFCou: FMM=F IPFlag=           0 FMFlag=      100000 FMFlg1=           0
         NFxFlg=           0 DoJE=T BraDBF=F KetDBF=T FulRan=T
         wScrn=  0.000000 ICntrl=       500 IOpCl=  0 I1Cent=   200000004 NGrid=           0
         NMat0=    1 NMatS0=      1 NMatT0=    0 NMatD0=    1 NMtDS0=    0 NMtDT0=    0
 Petite list used in FoFCou.
 Keep R1 and R2 ints in memory in symmetry-blocked form, NReq=617299900.
 Requested convergence on RMS density matrix=1.00D-08 within 128 cycles.
 Requested convergence on MAX density matrix=1.00D-06.
 Requested convergence on             energy=1.00D-06.
 No special actions if energy rises.
 SCF Done:  E(UM062X) =  -1610.30496019     A.U. after   17 cycles
            NFock= 17  Conv=0.75D-08     -V/T= 2.0023
 <Sx>= 0.0000 <Sy>= 0.0000 <Sz>= 0.5000 <S**2>= 0.7628 S= 0.5064
 <L.S>=  0.00000000000    
 Annihilation of the first spin contaminant:
 S**2 before annihilation     0.7628,   after     0.7501
 Calling FoFJK, ICntrl=      2127 FMM=F ISym2X=1 I1Cent= 0 IOpClX= 1 NMat=1 NMatS=1 NMatT=0.
 ***** Axes restored to original set *****
 -------------------------------------------------------------------
 Center     Atomic                   Forces (Hartrees/Bohr)
 Number     Number              X              Y              Z
 -------------------------------------------------------------------
      1        6           0.003850893   -0.004332623   -0.000000000
      2        6           0.002643965    0.001891265    0.000000000
      3        6          -0.013657456   -0.004353229   -0.000000000
      4        6           0.006752271   -0.001164516    0.000000000
      5        6          -0.004606380    0.001778351   -0.000000000
      6        6           0.006788937    0.003460418    0.000000000
      7       17          -0.003991475   -0.003107829   -0.000000000
      8       17          -0.003563870    0.002477969    0.000000000
      9        1          -0.000033458    0.000389263    0.000000000
     10       17           0.006370484    0.003844246    0.000000000
     11        1          -0.000553912   -0.000883315   -0.000000000
 -------------------------------------------------------------------
 Cartesian Forces:  Max     0.013657456 RMS     0.003814140

 GradGradGradGradGradGradGradGradGradGradGradGradGradGradGradGradGradGrad
 Berny optimization.
 Using GEDIIS/GDIIS optimizer.
 FormGI is forming the generalized inverse of G from B-inverse, IUseBI=4.
 Internal  Forces:  Max     0.007439826 RMS     0.001886595
 Search for a local minimum.
 Step number   2 out of a maximum of   57
 All quantities printed in internal units (Hartrees-Bohrs-Radians)
 Mixed Optimization -- RFO/linear search
 Update second derivatives using D2CorX and points    1    2
 DE= -4.61D-03 DEPred=-3.98D-03 R= 1.16D+00
 TightC=F SS=  1.41D+00  RLast= 1.49D-01 DXNew= 5.0454D-01 4.4573D-01
 Trust test= 1.16D+00 RLast= 1.49D-01 DXMaxT set to 4.46D-01
 ITU=  1  0
 Use linear search instead of GDIIS.
     Eigenvalues ---    0.01892   0.01922   0.01936   0.01966   0.01993
     Eigenvalues ---    0.02079   0.02125   0.02368   0.15926   0.16008
     Eigenvalues ---    0.21350   0.23624   0.24431   0.25000   0.25000
     Eigenvalues ---    0.25082   0.32596   0.33749   0.35039   0.36970
     Eigenvalues ---    0.37868   0.40421   0.41676   0.43246   0.43916
     Eigenvalues ---    0.49346   0.51269
 RFO step:  Lambda=-3.38959499D-04 EMin= 1.89186885D-02
 Quartic linear search produced a step of  0.23651.
 Iteration  1 RMS(Cart)=  0.00671835 RMS(Int)=  0.00004640
 Iteration  2 RMS(Cart)=  0.00005853 RMS(Int)=  0.00002356
 Iteration  3 RMS(Cart)=  0.00000000 RMS(Int)=  0.00002356
 ClnCor:  largest displacement from symmetrization is 1.42D-09 for atom     8.
 Variable       Old X    -DE/DX   Delta X   Delta X   Delta X     New X
                                 (Linear)    (Quad)   (Total)
    R1        2.63103  -0.00040  -0.00666   0.00415  -0.00253   2.62850
    R2        2.64583  -0.00110  -0.00670   0.00208  -0.00466   2.64117
    R3        3.25541   0.00432   0.01303   0.00388   0.01691   3.27231
    R4        2.63602  -0.00241  -0.00749  -0.00060  -0.00808   2.62794
    R5        2.04578   0.00039  -0.00795   0.00796   0.00000   2.04579
    R6        2.58853   0.00093  -0.00310   0.00509   0.00202   2.59056
    R7        3.24274   0.00744   0.01567   0.01116   0.02683   3.26956
    R8        2.57735   0.00240  -0.00145   0.00712   0.00569   2.58304
    R9        2.64750  -0.00225  -0.00610  -0.00151  -0.00762   2.63988
   R10        2.04417   0.00086  -0.00734   0.00916   0.00182   2.04600
   R11        3.24630   0.00504   0.01357   0.00549   0.01906   3.26536
    A1        2.10855   0.00001  -0.00319   0.00190  -0.00136   2.10719
    A2        2.06779  -0.00064   0.00157  -0.00408  -0.00248   2.06532
    A3        2.10684   0.00063   0.00162   0.00218   0.00383   2.11068
    A4        2.09970  -0.00153   0.00328  -0.01147  -0.00821   2.09149
    A5        2.08580   0.00075  -0.00329   0.00700   0.00372   2.08952
    A6        2.09768   0.00078   0.00000   0.00448   0.00449   2.10218
    A7        2.03169   0.00373   0.00474   0.01516   0.01994   2.05163
    A8        2.11861  -0.00193  -0.00195  -0.00826  -0.01024   2.10838
    A9        2.13288  -0.00179  -0.00279  -0.00689  -0.00970   2.12318
   A10        2.20106  -0.00421  -0.01195  -0.00982  -0.02169   2.17937
   A11        2.04410   0.00074   0.00792  -0.00208   0.00586   2.04996
   A12        2.13612   0.00024  -0.00128   0.00351   0.00223   2.13834
   A13        2.10297  -0.00098  -0.00664  -0.00144  -0.00809   2.09488
   A14        2.08127   0.00126  -0.00081   0.00632   0.00546   2.08673
   A15        2.11794   0.00015  -0.00029   0.00128   0.00102   2.11896
   A16        2.08397  -0.00142   0.00109  -0.00760  -0.00648   2.07749
    D1        0.00000   0.00000   0.00000   0.00000  -0.00000   0.00000
    D2        3.14159  -0.00000   0.00000   0.00000   0.00000   3.14159
    D3        3.14159   0.00000   0.00000   0.00000   0.00000   3.14159
    D4        0.00000   0.00000   0.00000   0.00000   0.00000   0.00000
    D5       -0.00000   0.00000   0.00000  -0.00000   0.00000   0.00000
    D6        3.14159   0.00000   0.00000  -0.00000   0.00000   3.14159
    D7        3.14159  -0.00000   0.00000  -0.00000   0.00000   3.14159
    D8        0.00000  -0.00000   0.00000  -0.00000  -0.00000   0.00000
    D9        0.00000  -0.00000   0.00000  -0.00000   0.00000   0.00000
   D10        3.14159  -0.00000   0.00000  -0.00000   0.00000   3.14159
   D11        3.14159   0.00000   0.00000  -0.00000   0.00000   3.14159
   D12       -0.00000   0.00000   0.00000  -0.00000   0.00000   0.00000
   D13       -0.00000   0.00000   0.00000   0.00000   0.00000   0.00000
   D14        3.14159   0.00000   0.00000   0.00000   0.00000   3.14159
   D15        0.00000   0.00000   0.00000   0.00000   0.00000   0.00000
   D16        3.14159   0.00000   0.00000   0.00000   0.00000   3.14159
   D17        0.00000  -0.00000   0.00000  -0.00000  -0.00000   0.00000
   D18        3.14159  -0.00000   0.00000  -0.00000   0.00000   3.14159
   D19        3.14159  -0.00000   0.00000  -0.00000   0.00000   3.14159
   D20        0.00000  -0.00000   0.00000  -0.00000   0.00000   0.00000
         Item               Value     Threshold  Converged?
 Maximum Force            0.007440     0.000450     NO 
 RMS     Force            0.001887     0.000300     NO 
 Maximum Displacement     0.020217     0.001800     NO 
 RMS     Displacement     0.006716     0.001200     NO 
 Predicted change in Energy=-3.370978D-04
 GradGradGradGradGradGradGradGradGradGradGradGradGradGradGradGradGradGrad

                          Input orientation:                          
 ---------------------------------------------------------------------
 Center     Atomic      Atomic             Coordinates (Angstroms)
 Number     Number       Type             X           Y           Z
 ---------------------------------------------------------------------
      1          6           0       -3.194315    0.192275    0.000000
      2          6           0       -2.013288    0.927053    0.000000
      3          6           0       -0.788608    0.268223    0.000000
      4          6           0       -0.806049   -1.102530   -0.000000
      5          6           0       -1.937380   -1.869648   -0.000000
      6          6           0       -3.166148   -1.205088   -0.000000
      7         17           0       -4.622477   -2.135105   -0.000000
      8         17           0       -4.697293    1.052280    0.000000
      9          1           0       -2.054230    2.008861    0.000000
     10         17           0        0.695682    1.157267    0.000000
     11          1           0       -1.906735   -2.951909   -0.000000
 ---------------------------------------------------------------------
                    Distance matrix (angstroms):
                    1          2          3          4          5
     1  C    0.000000
     2  C    1.390943   0.000000
     3  C    2.406905   1.390646   0.000000
     4  C    2.716677   2.361490   1.370865   0.000000
     5  C    2.414832   2.797731   2.426967   1.366887   0.000000
     6  C    1.397647   2.423863   2.797024   2.362327   1.396965
     7  Cl   2.730631   4.023019   4.524880   3.953648   2.698187
     8  Cl   1.731633   2.686925   3.986548   4.448031   4.019301
     9  H    2.144710   1.082583   2.152120   3.352419   3.880269
    10  Cl   4.007903   2.718734   1.730178   2.713278   4.011886
    11  H    3.397610   3.880425   3.408733   2.152141   1.082694
                    6          7          8          9         10
     6  C    0.000000
     7  Cl   1.727954   0.000000
     8  Cl   2.727657   3.188262   0.000000
     9  H    3.400858   4.875280   2.810842   0.000000
    10  Cl   4.527080   6.254800   5.393997   2.878755   0.000000
    11  H    2.153487   2.835916   4.880649   4.962962   4.863939
                   11
    11  H    0.000000
 Stoichiometry    C6H2Cl3(2)
 Framework group  CS[SG(C6H2Cl3)]
 Deg. of freedom    19
 Full point group                 CS      NOp   2
 Largest Abelian subgroup         CS      NOp   2
 Largest concise Abelian subgroup C1      NOp   1
                         Standard orientation:                         
 ---------------------------------------------------------------------
 Center     Atomic      Atomic             Coordinates (Angstroms)
 Number     Number       Type             X           Y           Z
 ---------------------------------------------------------------------
      1          6           0        0.000000    0.794823   -0.000000
      2          6           0        1.206774    0.103144   -0.000000
      3          6           0        1.207109   -1.287503    0.000000
      4          6           0       -0.008162   -1.921841    0.000000
      5          6           0       -1.219858   -1.289249    0.000000
      6          6           0       -1.217085    0.107713   -0.000000
      7         17           0       -2.726260    0.949270   -0.000000
      8         17           0        0.044903    2.525874   -0.000000
      9          1           0        2.139945    0.651939   -0.000000
     10         17           0        2.693457   -2.173101    0.000000
     11          1           0       -2.158308   -1.829192    0.000000
 ---------------------------------------------------------------------
 Rotational constants (GHZ):           1.8970828           0.5997174           0.4556687
 Standard basis: 6-311++G(d,p) (5D, 7F)
 There are   183 symmetry adapted cartesian basis functions of A'  symmetry.
 There are    62 symmetry adapted cartesian basis functions of A"  symmetry.
 There are   174 symmetry adapted basis functions of A'  symmetry.
 There are    62 symmetry adapted basis functions of A"  symmetry.
   236 basis functions,   393 primitive gaussians,   245 cartesian basis functions
    45 alpha electrons       44 beta electrons
       nuclear repulsion energy       613.7839039282 Hartrees.
 NAtoms=   11 NActive=   11 NUniq=   11 SFac= 1.00D+00 NAtFMM=   60 NAOKFM=F Big=F
 Integral buffers will be    131072 words long.
 Raffenetti 2 integral format.
 Two-electron integral symmetry is turned on.
 One-electron integrals computed using PRISM.
 NBasis=   236 RedAO= T EigKep=  1.11D-06  NBF=   174    62
 NBsUse=   236 1.00D-06 EigRej= -1.00D+00 NBFU=   174    62
 Initial guess from the checkpoint file:  "frequency_chks/124_ClBzNeutralRadical_Freq.chk"
 B after Tr=     0.000000   -0.000000    0.000000
         Rot=    1.000000    0.000000   -0.000000   -0.000884 Ang=  -0.10 deg.
 Initial guess orbital symmetries:
 Alpha Orbitals:
       Occupied  (A') (A') (A') (A') (A') (A') (A') (A') (A') (A')
                 (A') (A') (A') (A') (A') (A") (A') (A") (A') (A")
                 (A') (A') (A') (A') (A') (A') (A') (A') (A') (A')
                 (A') (A') (A') (A") (A') (A') (A") (A") (A') (A')
                 (A") (A') (A') (A") (A")
       Virtual   (A") (A") (A') (A') (A') (A') (A') (A') (A") (A')
                 (A") (A') (A") (A') (A') (A') (A") (A') (A') (A")
                 (A') (A') (A") (A') (A') (A") (A') (A") (A') (A')
                 (A") (A') (A') (A") (A') (A') (A') (A') (A') (A')
                 (A') (A') (A') (A') (A') (A') (A') (A') (A') (A')
                 (A') (A') (A") (A') (A") (A') (A') (A") (A') (A')
                 (A') (A") (A') (A") (A') (A") (A") (A') (A") (A')
                 (A') (A") (A') (A') (A') (A') (A') (A") (A') (A')
                 (A') (A") (A') (A') (A') (A") (A") (A") (A') (A')
                 (A") (A') (A') (A') (A') (A") (A') (A') (A') (A")
                 (A') (A') (A") (A') (A') (A') (A") (A') (A") (A')
                 (A") (A') (A') (A') (A") (A') (A') (A") (A') (A')
                 (A') (A") (A') (A") (A") (A') (A') (A") (A') (A')
                 (A") (A') (A') (A') (A") (A") (A") (A") (A') (A')
                 (A') (A') (A') (A') (A') (A') (A') (A") (A') (A')
                 (A') (A") (A') (A") (A") (A") (A') (A") (A') (A')
                 (A') (A') (A') (A') (A') (A') (A') (A') (A') (A')
                 (A') (A') (A') (A') (A') (A') (A') (A') (A') (A")
                 (A") (A") (A') (A') (A') (A') (A') (A') (A') (A')
                 (A')
 Beta  Orbitals:
       Occupied  (A') (A') (A') (A') (A') (A') (A') (A') (A') (A')
                 (A') (A') (A') (A') (A') (A") (A") (A') (A') (A")
                 (A') (A') (A') (A') (A') (A') (A') (A') (A') (A')
                 (A') (A') (A') (A") (A') (A') (A") (A") (A') (A')
                 (A") (A') (A") (A")
       Virtual   (A') (A") (A") (A') (A') (A') (A') (A') (A") (A')
                 (A') (A') (A") (A") (A') (A') (A') (A") (A') (A")
                 (A') (A') (A') (A") (A') (A") (A') (A') (A") (A')
                 (A') (A") (A') (A') (A") (A') (A') (A') (A') (A')
                 (A') (A') (A') (A') (A') (A') (A') (A') (A') (A')
                 (A') (A') (A') (A") (A') (A") (A') (A') (A") (A')
                 (A') (A') (A") (A') (A') (A") (A") (A') (A") (A")
                 (A') (A') (A") (A') (A') (A') (A') (A') (A") (A')
                 (A') (A') (A") (A') (A') (A') (A") (A") (A") (A')
                 (A") (A') (A') (A') (A') (A') (A') (A") (A') (A')
                 (A") (A') (A') (A") (A') (A') (A') (A") (A') (A')
                 (A") (A") (A') (A') (A') (A") (A') (A') (A") (A')
                 (A') (A') (A") (A') (A") (A") (A') (A') (A") (A')
                 (A') (A") (A') (A') (A') (A") (A") (A") (A") (A')
                 (A') (A') (A') (A') (A') (A') (A') (A') (A") (A')
                 (A') (A') (A") (A') (A") (A") (A") (A') (A") (A')
                 (A') (A') (A') (A') (A') (A') (A') (A') (A') (A')
                 (A') (A') (A') (A') (A') (A') (A') (A') (A') (A')
                 (A") (A") (A") (A') (A') (A') (A') (A') (A') (A')
                 (A') (A')
 Initial guess <Sx>= 0.0000 <Sy>= 0.0000 <Sz>= 0.5000 <S**2>= 0.7629 S= 0.5064
 ExpMin= 3.60D-02 ExpMax= 1.06D+05 ExpMxC= 3.62D+03 IAcc=3 IRadAn=         5 AccDes= 0.00D+00
 Harris functional with IExCor= 1009 and IRadAn=       5 diagonalized for initial guess.
 HarFok:  IExCor= 1009 AccDes= 0.00D+00 IRadAn=         5 IDoV= 1 UseB2=F ITyADJ=14
 ICtDFT=  3500011 ScaDFX=  1.000000  1.000000  1.000000  1.000000
 FoFCou: FMM=F IPFlag=           0 FMFlag=      100000 FMFlg1=           0
         NFxFlg=           0 DoJE=T BraDBF=F KetDBF=T FulRan=T
         wScrn=  0.000000 ICntrl=       500 IOpCl=  0 I1Cent=   200000004 NGrid=           0
         NMat0=    1 NMatS0=      1 NMatT0=    0 NMatD0=    1 NMtDS0=    0 NMtDT0=    0
 Petite list used in FoFCou.
 Keep R1 and R2 ints in memory in symmetry-blocked form, NReq=617299900.
 Requested convergence on RMS density matrix=1.00D-08 within 128 cycles.
 Requested convergence on MAX density matrix=1.00D-06.
 Requested convergence on             energy=1.00D-06.
 No special actions if energy rises.
 SCF Done:  E(UM062X) =  -1610.30534438     A.U. after   17 cycles
            NFock= 17  Conv=0.83D-08     -V/T= 2.0023
 <Sx>= 0.0000 <Sy>= 0.0000 <Sz>= 0.5000 <S**2>= 0.7630 S= 0.5065
 <L.S>=  0.00000000000    
 Annihilation of the first spin contaminant:
 S**2 before annihilation     0.7630,   after     0.7501
 Calling FoFJK, ICntrl=      2127 FMM=F ISym2X=1 I1Cent= 0 IOpClX= 1 NMat=1 NMatS=1 NMatT=0.
 ***** Axes restored to original set *****
 -------------------------------------------------------------------
 Center     Atomic                   Forces (Hartrees/Bohr)
 Number     Number              X              Y              Z
 -------------------------------------------------------------------
      1        6          -0.000835303   -0.001071950   -0.000000000
      2        6           0.000588285    0.001693583    0.000000000
      3        6          -0.002434623   -0.001800431   -0.000000000
      4        6           0.001306332    0.000759812    0.000000000
      5        6          -0.000385793   -0.000950052   -0.000000000
      6        6           0.000392358    0.001137454    0.000000000
      7       17          -0.000352710   -0.000169975   -0.000000000
      8       17           0.000142733   -0.000220047   -0.000000000
      9        1           0.000137993    0.000153412    0.000000000
     10       17           0.001432903    0.000710444    0.000000000
     11        1           0.000007825   -0.000242252   -0.000000000
 -------------------------------------------------------------------
 Cartesian Forces:  Max     0.002434623 RMS     0.000814535

 GradGradGradGradGradGradGradGradGradGradGradGradGradGradGradGradGradGrad
 Berny optimization.
 Using GEDIIS/GDIIS optimizer.
 FormGI is forming the generalized inverse of G from B-inverse, IUseBI=4.
 Internal  Forces:  Max     0.001593612 RMS     0.000416986
 Search for a local minimum.
 Step number   3 out of a maximum of   57
 All quantities printed in internal units (Hartrees-Bohrs-Radians)
 Mixed Optimization -- En-DIIS/RFO-DIIS
 Update second derivatives using D2CorX and points    1    2    3
 DE= -3.84D-04 DEPred=-3.37D-04 R= 1.14D+00
 TightC=F SS=  1.41D+00  RLast= 5.41D-02 DXNew= 7.4963D-01 1.6234D-01
 Trust test= 1.14D+00 RLast= 5.41D-02 DXMaxT set to 4.46D-01
 ITU=  1  1  0
 Use linear search instead of GDIIS.
     Eigenvalues ---    0.01892   0.01922   0.01936   0.01966   0.01994
     Eigenvalues ---    0.02080   0.02127   0.02364   0.15800   0.16028
     Eigenvalues ---    0.18217   0.23849   0.24407   0.25000   0.25013
     Eigenvalues ---    0.25240   0.32243   0.33749   0.35092   0.37048
     Eigenvalues ---    0.38001   0.40395   0.41818   0.43614   0.44685
     Eigenvalues ---    0.49355   0.51394
 RFO step:  Lambda=-2.07877752D-05 EMin= 1.89185579D-02
 Quartic linear search produced a step of  0.15144.
 Iteration  1 RMS(Cart)=  0.00188758 RMS(Int)=  0.00000337
 Iteration  2 RMS(Cart)=  0.00000320 RMS(Int)=  0.00000232
 Iteration  3 RMS(Cart)=  0.00000000 RMS(Int)=  0.00000232
 ClnCor:  largest displacement from symmetrization is 8.20D-10 for atom     8.
 Variable       Old X    -DE/DX   Delta X   Delta X   Delta X     New X
                                 (Linear)    (Quad)   (Total)
    R1        2.62850   0.00093  -0.00038   0.00233   0.00194   2.63045
    R2        2.64117  -0.00032  -0.00071  -0.00067  -0.00138   2.63979
    R3        3.27231  -0.00023   0.00256  -0.00192   0.00064   3.27295
    R4        2.62794   0.00021  -0.00122   0.00108  -0.00015   2.62780
    R5        2.04579   0.00015   0.00000   0.00007   0.00007   2.04585
    R6        2.59056  -0.00023   0.00031  -0.00092  -0.00061   2.58995
    R7        3.26956   0.00159   0.00406   0.00255   0.00661   3.27618
    R8        2.58304   0.00075   0.00086   0.00093   0.00179   2.58483
    R9        2.63988   0.00045  -0.00115   0.00169   0.00053   2.64042
   R10        2.04600   0.00024   0.00028   0.00021   0.00049   2.04648
   R11        3.26536   0.00039   0.00289  -0.00023   0.00265   3.26801
    A1        2.10719   0.00012  -0.00021   0.00069   0.00048   2.10767
    A2        2.06532   0.00012  -0.00037   0.00083   0.00046   2.06578
    A3        2.11068  -0.00024   0.00058  -0.00152  -0.00094   2.10974
    A4        2.09149  -0.00086  -0.00124  -0.00314  -0.00438   2.08711
    A5        2.08952   0.00058   0.00056   0.00262   0.00318   2.09270
    A6        2.10218   0.00027   0.00068   0.00052   0.00120   2.10338
    A7        2.05163   0.00096   0.00302   0.00252   0.00554   2.05717
    A8        2.10838  -0.00026  -0.00155  -0.00019  -0.00174   2.10664
    A9        2.12318  -0.00070  -0.00147  -0.00233  -0.00380   2.11938
   A10        2.17937  -0.00030  -0.00328   0.00053  -0.00274   2.17663
   A11        2.04996  -0.00044   0.00089  -0.00240  -0.00151   2.04845
   A12        2.13834   0.00023   0.00034   0.00083   0.00117   2.13951
   A13        2.09488   0.00021  -0.00122   0.00157   0.00034   2.09523
   A14        2.08673   0.00051   0.00083   0.00180   0.00262   2.08935
   A15        2.11896  -0.00035   0.00015  -0.00177  -0.00162   2.11735
   A16        2.07749  -0.00017  -0.00098  -0.00002  -0.00100   2.07649
    D1       -0.00000   0.00000   0.00000  -0.00000   0.00000   0.00000
    D2        3.14159   0.00000   0.00000   0.00000   0.00000   3.14159
    D3        3.14159   0.00000   0.00000  -0.00000   0.00000   3.14159
    D4        0.00000   0.00000   0.00000  -0.00000   0.00000   0.00000
    D5        0.00000  -0.00000   0.00000   0.00000   0.00000   0.00000
    D6        3.14159  -0.00000   0.00000  -0.00000   0.00000   3.14159
    D7        3.14159  -0.00000   0.00000   0.00000   0.00000   3.14159
[...]
      7       17           0.000043907    0.000048852    0.000000000
      8       17           0.000103162   -0.000098134   -0.000000000
      9        1          -0.000015047   -0.000004539   -0.000000000
     10       17           0.000025140    0.000001646    0.000000000
     11        1          -0.000000230    0.000019165    0.000000000
 -------------------------------------------------------------------
 Cartesian Forces:  Max     0.000180093 RMS     0.000050887
 FormGI is forming the generalized inverse of G from B-inverse, IUseBI=4.

 GradGradGradGradGradGradGradGradGradGradGradGradGradGradGradGradGradGrad
 Berny optimization.
 Internal  Forces:  Max     0.000138145 RMS     0.000032641
 Search for a local minimum.
 Step number   1 out of a maximum of    2
 All quantities printed in internal units (Hartrees-Bohrs-Radians)
 Second derivative matrix not updated -- analytic derivatives used.
 ITU=  0
     Eigenvalues ---    0.01574   0.01761   0.01890   0.02389   0.02887
     Eigenvalues ---    0.03004   0.03185   0.03792   0.10772   0.11141
     Eigenvalues ---    0.15260   0.15874   0.17120   0.18067   0.19230
     Eigenvalues ---    0.22255   0.25150   0.27428   0.29569   0.31909
     Eigenvalues ---    0.36640   0.36881   0.43090   0.45424   0.47819
     Eigenvalues ---    0.49949   0.52740
 Angle between quadratic step and forces=  21.64 degrees.
 Linear search not attempted -- first point.
 Iteration  1 RMS(Cart)=  0.00016906 RMS(Int)=  0.00000002
 Iteration  2 RMS(Cart)=  0.00000002 RMS(Int)=  0.00000000
 ClnCor:  largest displacement from symmetrization is 2.46D-11 for atom    10.
 Variable       Old X    -DE/DX   Delta X   Delta X   Delta X     New X
                                 (Linear)    (Quad)   (Total)
    R1        2.63097   0.00004   0.00000   0.00015   0.00015   2.63112
    R2        2.64020  -0.00007   0.00000  -0.00009  -0.00009   2.64011
    R3        3.27192  -0.00014   0.00000  -0.00058  -0.00058   3.27134
    R4        2.62754   0.00001   0.00000  -0.00005  -0.00005   2.62749
    R5        2.04586  -0.00000   0.00000  -0.00000  -0.00000   2.04586
    R6        2.58946  -0.00005   0.00000  -0.00009  -0.00009   2.58937
    R7        3.27769   0.00002   0.00000   0.00008   0.00008   3.27777
    R8        2.58493  -0.00003   0.00000  -0.00010  -0.00010   2.58482
    R9        2.64075   0.00004   0.00000   0.00015   0.00015   2.64091
   R10        2.04650  -0.00002   0.00000  -0.00006  -0.00006   2.04644
   R11        3.26801  -0.00006   0.00000  -0.00019  -0.00019   3.26782
    A1        2.10779  -0.00002   0.00000  -0.00014  -0.00014   2.10765
    A2        2.06517   0.00005   0.00000   0.00019   0.00019   2.06536
    A3        2.11023  -0.00003   0.00000  -0.00005  -0.00005   2.11018
    A4        2.08583   0.00001   0.00000   0.00007   0.00007   2.08590
    A5        2.09367  -0.00001   0.00000  -0.00013  -0.00013   2.09354
    A6        2.10368   0.00000   0.00000   0.00007   0.00007   2.10375
    A7        2.05839  -0.00002   0.00000  -0.00008  -0.00008   2.05830
    A8        2.10657   0.00004   0.00000   0.00025   0.00025   2.10682
    A9        2.11822  -0.00003   0.00000  -0.00017  -0.00017   2.11806
   A10        2.17698   0.00004   0.00000   0.00021   0.00021   2.17718
   A11        2.04723  -0.00003   0.00000  -0.00021  -0.00021   2.04703
   A12        2.14013   0.00002   0.00000   0.00021   0.00021   2.14034
   A13        2.09582   0.00001   0.00000  -0.00000  -0.00000   2.09582
   A14        2.09015   0.00002   0.00000   0.00015   0.00015   2.09031
   A15        2.11750  -0.00006   0.00000  -0.00021  -0.00021   2.11729
   A16        2.07553   0.00003   0.00000   0.00005   0.00005   2.07559
    D1        0.00000   0.00000   0.00000  -0.00000  -0.00000   0.00000
    D2        3.14159  -0.00000   0.00000  -0.00000   0.00000   3.14159
    D3        3.14159  -0.00000   0.00000  -0.00000   0.00000   3.14159
    D4       -0.00000   0.00000   0.00000  -0.00000   0.00000   0.00000
    D5        0.00000   0.00000   0.00000  -0.00000  -0.00000   0.00000
    D6        3.14159  -0.00000   0.00000  -0.00000   0.00000   3.14159
    D7        3.14159   0.00000   0.00000   0.00000   0.00000   3.14159
    D8       -0.00000   0.00000   0.00000   0.00000   0.00000   0.00000
    D9       -0.00000   0.00000   0.00000   0.00000   0.00000   0.00000
   D10        3.14159   0.00000   0.00000   0.00000   0.00000   3.14159
   D11        3.14159  -0.00000   0.00000   0.00000   0.00000   3.14159
   D12        0.00000  -0.00000   0.00000   0.00000   0.00000   0.00000
   D13        0.00000  -0.00000   0.00000  -0.00000   0.00000   0.00000
   D14        3.14159   0.00000   0.00000  -0.00000   0.00000   3.14159
   D15       -0.00000   0.00000   0.00000  -0.00000   0.00000   0.00000
   D16        3.14159   0.00000   0.00000   0.00000   0.00000   3.14159
   D17       -0.00000   0.00000   0.00000   0.00000   0.00000   0.00000
   D18        3.14159   0.00000   0.00000   0.00000   0.00000   3.14159
   D19        3.14159   0.00000   0.00000  -0.00000   0.00000   3.14159
   D20        0.00000   0.00000   0.00000   0.00000   0.00000   0.00000
         Item               Value     Threshold  Converged?
 Maximum Force            0.000138     0.000450     YES
 RMS     Force            0.000033     0.000300     YES
 Maximum Displacement     0.000683     0.001800     YES
 RMS     Displacement     0.000169     0.001200     YES
 Predicted change in Energy=-9.519448D-08
 Optimization completed.
    -- Stationary point found.
                           ----------------------------
                           !   Optimized Parameters   !
                           ! (Angstroms and Degrees)  !
 --------------------------                            --------------------------
 ! Name  Definition              Value          Derivative Info.                !
 --------------------------------------------------------------------------------
 ! R1    R(1,2)                  1.3922         -DE/DX =    0.0                 !
 ! R2    R(1,6)                  1.3971         -DE/DX =   -0.0001              !
 ! R3    R(1,8)                  1.7314         -DE/DX =   -0.0001              !
 ! R4    R(2,3)                  1.3904         -DE/DX =    0.0                 !
 ! R5    R(2,9)                  1.0826         -DE/DX =    0.0                 !
 ! R6    R(3,4)                  1.3703         -DE/DX =    0.0                 !
 ! R7    R(3,10)                 1.7345         -DE/DX =    0.0                 !
 ! R8    R(4,5)                  1.3679         -DE/DX =    0.0                 !
 ! R9    R(5,6)                  1.3974         -DE/DX =    0.0                 !
 ! R10   R(5,11)                 1.083          -DE/DX =    0.0                 !
 ! R11   R(6,7)                  1.7294         -DE/DX =   -0.0001              !
 ! A1    A(2,1,6)              120.7674         -DE/DX =    0.0                 !
 ! A2    A(2,1,8)              118.3255         -DE/DX =    0.0001              !
 ! A3    A(6,1,8)              120.907          -DE/DX =    0.0                 !
 ! A4    A(1,2,3)              119.5095         -DE/DX =    0.0                 !
 ! A5    A(1,2,9)              119.9586         -DE/DX =    0.0                 !
 ! A6    A(3,2,9)              120.532          -DE/DX =    0.0                 !
 ! A7    A(2,3,4)              117.9369         -DE/DX =    0.0                 !
 ! A8    A(2,3,10)             120.6978         -DE/DX =    0.0                 !
 ! A9    A(4,3,10)             121.3653         -DE/DX =    0.0                 !
 ! A10   A(3,4,5)              124.7316         -DE/DX =    0.0                 !
 ! A11   A(4,5,6)              117.2978         -DE/DX =    0.0                 !
 ! A12   A(4,5,11)             122.6204         -DE/DX =    0.0                 !
 ! A13   A(6,5,11)             120.0819         -DE/DX =    0.0                 !
 ! A14   A(1,6,5)              119.7569         -DE/DX =    0.0                 !
 ! A15   A(1,6,7)              121.3238         -DE/DX =   -0.0001              !
 ! A16   A(5,6,7)              118.9193         -DE/DX =    0.0                 !
 ! D1    D(6,1,2,3)              0.0            -DE/DX =    0.0                 !
 ! D2    D(6,1,2,9)            180.0            -DE/DX =    0.0                 !
 ! D3    D(8,1,2,3)            180.0            -DE/DX =    0.0                 !
 ! D4    D(8,1,2,9)              0.0            -DE/DX =    0.0                 !
 ! D5    D(2,1,6,5)              0.0            -DE/DX =    0.0                 !
 ! D6    D(2,1,6,7)            180.0            -DE/DX =    0.0                 !
 ! D7    D(8,1,6,5)            180.0            -DE/DX =    0.0                 !
 ! D8    D(8,1,6,7)              0.0            -DE/DX =    0.0                 !
 ! D9    D(1,2,3,4)              0.0            -DE/DX =    0.0                 !
 ! D10   D(1,2,3,10)           180.0            -DE/DX =    0.0                 !
 ! D11   D(9,2,3,4)            180.0            -DE/DX =    0.0                 !
 ! D12   D(9,2,3,10)             0.0            -DE/DX =    0.0                 !
 ! D13   D(2,3,4,5)              0.0            -DE/DX =    0.0                 !
 ! D14   D(10,3,4,5)           180.0            -DE/DX =    0.0                 !
 ! D15   D(3,4,5,6)              0.0            -DE/DX =    0.0                 !
 ! D16   D(3,4,5,11)           180.0            -DE/DX =    0.0                 !
 ! D17   D(4,5,6,1)              0.0            -DE/DX =    0.0                 !
 ! D18   D(4,5,6,7)            180.0            -DE/DX =    0.0                 !
 ! D19   D(11,5,6,1)           180.0            -DE/DX =    0.0                 !
 ! D20   D(11,5,6,7)             0.0            -DE/DX =    0.0                 !
 --------------------------------------------------------------------------------
 GradGradGradGradGradGradGradGradGradGradGradGradGradGradGradGradGradGrad


 ----------------------------------------------------------------------

 Electric dipole moment (input orientation):
 (Debye = 10**-18 statcoulomb cm , SI units = C m)
                  (au)            (Debye)         (10**-30 SI)
   Tot        0.209075D+00      0.531416D+00      0.177261D+01
   x          0.148036D+00      0.376269D+00      0.125510D+01
   y         -0.147641D+00     -0.375266D+00     -0.125175D+01
   z          0.000000D+00      0.000000D+00      0.000000D+00

 Dipole polarizability, Alpha (input orientation).
 (esu units = cm**3 , SI units = C**2 m**2 J**-1)
 Alpha(0;0):
               (au)            (10**-24 esu)      (10**-40 SI)
   iso        0.101500D+03      0.150408D+02      0.167351D+02
   aniso      0.769891D+02      0.114086D+02      0.126938D+02
   xx         0.138786D+03      0.205659D+02      0.228827D+02
   yx         0.142606D+02      0.211321D+01      0.235126D+01
   yy         0.109871D+03      0.162812D+02      0.181153D+02
   zx         0.000000D+00      0.000000D+00      0.000000D+00
   zy         0.000000D+00      0.000000D+00      0.000000D+00
   zz         0.558436D+02      0.827516D+01      0.920736D+01

 ----------------------------------------------------------------------

 Dipole orientation:
     6         -2.82844166         -2.83600147         -4.53174793
     6         -1.01870415         -1.02142693         -3.93662914
     6         -0.49370503         -0.49502460         -1.41646121
     6         -1.80077688         -1.80558996          0.39441868
     6         -3.59325214         -3.60285612         -0.09417479
     6         -4.11983730         -4.13084873         -2.62745538
    17         -6.37273428         -6.38976721         -3.33572375
    17         -3.43626431         -3.44544869         -7.68842201
     1         -0.03282698         -0.03291472         -5.43210074
    17          1.74954204          1.75421818         -0.60900118
     1         -4.58832168         -4.60058527          1.38991423

 Electric dipole moment (dipole orientation):
 (Debye = 10**-18 statcoulomb cm , SI units = C m)
                  (au)            (Debye)         (10**-30 SI)
   Tot        0.209075D+00      0.531416D+00      0.177261D+01
   x          0.000000D+00      0.000000D+00      0.000000D+00
   y          0.000000D+00      0.000000D+00      0.000000D+00
   z          0.209075D+00      0.531416D+00      0.177261D+01

 Dipole polarizability, Alpha (dipole orientation).
 (esu units = cm**3 , SI units = C**2 m**2 J**-1)
 Alpha(0;0):
               (au)            (10**-24 esu)      (10**-40 SI)
   iso        0.101500D+03      0.150408D+02      0.167351D+02
   aniso      0.769891D+02      0.114086D+02      0.126938D+02
   xx         0.970867D+02      0.143868D+02      0.160074D+02
   yx         0.413533D+02      0.612793D+01      0.681824D+01
   yy         0.973074D+02      0.144195D+02      0.160438D+02
   zx         0.102360D+02      0.151682D+01      0.168770D+01
   zy         0.102634D+02      0.152088D+01      0.169221D+01
   zz         0.110107D+03      0.163161D+02      0.181541D+02

 ----------------------------------------------------------------------
 1\1\GINC-SH03-01N07\Freq\UM062X\6-311++G(d,p)\C6H2Cl3(2)\JLAPIER\09-De
 c-2025\0\\#N Geom=AllCheck Guess=TCheck SCRF=Check GenChk UM062X/6-311
 ++G(d,p) Freq\\Neutral Radical (removed 5) 124_\\0,2\C,-3.1947196326,0
 .192699202,0.\C,-2.014066386,0.930543689,0.\C,-0.7919825907,0.26735467
 4,0.\C,-0.8051477754,-1.1028654349,0.\C,-1.9367529175,-1.8713576412,0.
 \C,-3.1645891126,-1.2041101574,0.\Cl,-4.6221475696,-2.1348090219,0.\Cl
 ,-4.6991203232,1.0497955993,0.\H,-2.052691707,2.0124772366,0.\Cl,0.697
 6348692,1.1558669339,0.\H,-1.9072568546,-2.9539150795,0.\\Version=ES64
 L-G16RevB.01\State=2-A'\HF=-1610.3053658\S2=0.763032\S2-1=0.\S2A=0.750
 075\RMSD=7.111e-09\RMSF=5.089e-05\ZeroPoint=0.0594903\Thermal=0.067292
 6\Dipole=0.1480357,-0.1476411,0.\DipoleDeriv=0.6750378,-0.6040909,0.,-
 0.5487417,0.1695952,0.,0.,0.,0.0262627,-0.2962715,0.0309338,0.,-0.0226
 083,-0.0929727,0.,0.,0.,-0.1254077,0.8950273,0.4775343,0.,0.5606539,0.
 377087,0.,0.,0.,0.0500042,-0.2118488,-0.0302956,0.,-0.1057001,-0.09723
 ,0.,0.,0.,-0.068916,-0.1482004,-0.0937363,0.,-0.0123302,-0.0539658,0.,
 0.,0.,-0.0399161,0.6472424,0.6192947,0.,0.5583874,0.338821,0.,0.,0.,-0
 .0405357,-0.5447192,-0.3584738,0.,-0.3566086,-0.280064,0.,0.,0.,-0.030
 6108,-0.5323973,0.2785797,0.,0.3111084,-0.2081487,0.,0.,0.,-0.0326581,
 0.077574,0.0009121,0.,-0.0058993,0.0560647,0.,0.,0.,0.1409097,-0.64802
 24,-0.3035251,0.,-0.3658014,-0.2628623,0.,0.,0.,-0.0363445,0.086578,-0
 .0171329,0.,-0.01246,0.0536756,0.,0.,0.,0.1572122\Polar=138.7858521,14
 .2606299,109.871262,0.,0.,55.8435795\Quadrupole=-2.7262264,3.9455835,-
 1.2193571,-0.9689102,0.,0.\PG=CS [SG(C6H2Cl3)]\NImag=0\\0.57324752,0.0
 4027182,0.61125000,0.,0.,0.12193178,-0.25637508,-0.06169158,0.,0.65976
 281,-0.14082157,-0.18601322,0.,-0.00833575,0.75714619,0.,0.,-0.0614507
 8,0.,0.,0.12503204,-0.06158979,-0.03757120,0.,-0.26841063,0.14096201,0
 .,0.54095645,0.03432869,0.07754958,0.,0.05306555,-0.17171561,0.,-0.025
 86796,0.62331135,0.,0.,0.00765731,0.,0.,-0.06331540,0.,0.,0.11932398,-
 0.02010099,-0.03511836,0.,0.03650907,0.02582227,0.,-0.08886674,0.01680
 429,0.,0.43408684,-0.03568623,-0.07265301,0.,0.09169342,-0.03140798,0.
 ,-0.01099840,-0.35076482,0.,0.14566424,0.60435241,0.,0.,-0.00525335,0.
 ,0.,0.01519132,0.,0.,-0.05798765,0.,0.,0.07403114,0.03299581,0.0912631
 9,0.,-0.07742469,-0.00432332,0.,0.04226678,-0.07909949,0.,-0.27925722,
 -0.10948535,0.,0.62338710,0.02458165,-0.01837174,0.,-0.00159018,0.0004
 4242,0.,-0.03163356,-0.02985921,0.,-0.14983560,-0.19104793,0.,0.039605
 56,0.75352936,0.,0.,0.00921435,0.,0.,-0.00167343,0.,0.,0.00781099,0.,0
 .,-0.05157748,0.,0.,0.12221763,-0.10048017,-0.03498368,0.,0.04083902,-
 0.02213657,0.,-0.02019501,0.04027722,0.,-0.06771957,-0.04842830,0.,-0.
 25140683,0.13646346,0.,0.56324309,0.04267278,-0.30517867,0.,-0.0876640
 5,-0.02745220,0.,0.04031810,-0.06822144,0.,0.02709797,0.07460654,0.,0.
 04920964,-0.16669229,0.,-0.03565962,0.60032828,0.,0.,-0.06521816,0.,0.
 ,0.00786566,0.,0.,-0.00531516,0.,0.,0.01494379,0.,0.,-0.06202730,0.,0.
 ,0.11717820,-0.01538379,-0.00791084,0.,0.00102500,-0.00040800,0.,0.001
 86596,-0.00096987,0.,-0.00300008,0.00452501,0.,-0.04051709,-0.02402783
 ,0.,-0.14445808,-0.07000939,0.,0.19843073,-0.03331301,-0.01974801,0.,0
 .00423167,-0.00358783,0.,-0.00015390,0.00081085,0.,0.00084701,0.000131
 33,0.,0.00028368,0.00390710,0.,-0.06460629,-0.08101554,0.,0.09761772,0
 .10681535,0.,0.,0.00330148,0.,0.,0.00357899,0.,0.,-0.00033138,0.,0.,0.
 00429594,0.,0.,0.00477787,0.,0.,-0.02197084,0.,0.,0.01031779,-0.153203
 39,0.06607784,0.,-0.04244808,0.02195611,0.,0.00145105,-0.00455869,0.,-
 0.00106183,0.00205748,0.,0.00148331,0.00087317,0.,-0.01767289,0.008226
 32,0.,0.00329582,-0.00307219,0.,0.21045420,0.06191774,-0.07488841,0.,-
 0.00262681,0.00584246,0.,-0.00195477,-0.00095822,0.,0.00103006,0.00058
 833,0.,-0.00367385,-0.00433963,0.,0.03366032,-0.01818005,0.,0.00343437
 ,-0.00739585,0.,-0.09231605,0.09841427,0.,0.,-0.02273628,0.,0.,0.00440
 063,0.,0.,0.00464003,0.,0.,-0.00074884,0.,0.,0.00348493,0.,0.,0.003548
 16,0.,0.,-0.00114833,0.,0.,0.01143309,0.00341023,-0.02606448,0.,-0.053
 74828,0.01132143,0.,0.00114250,0.02683733,0.,-0.00398534,0.00373529,0.
 ,-0.00079331,-0.00086596,0.,-0.00337961,-0.00140575,0.,-0.00042992,-0.
 00146331,0.,0.00029419,-0.00099660,0.,0.05632824,0.00294903,-0.0107571
 7,0.,0.00977337,-0.34961555,0.,-0.00212881,-0.00894468,0.,0.00253951,-
 0.00073369,0.,-0.00008835,0.00102916,0.,-0.00208660,0.00035677,0.,-0.0
 0002283,-0.00020032,0.,0.00089906,0.00083258,0.,-0.01124734,0.36727645
 ,0.,0.,0.00295377,0.,0.,-0.03459775,0.,0.,0.00391245,0.,0.,0.00553117,
 0.,0.,-0.00143154,0.,0.,0.00546485,0.,0.,0.00016502,0.,0.,-0.00278928,
 0.,0.,0.02344959,0.00097982,0.00415257,0.,-0.03828749,-0.02419653,0.,-
 0.14540172,-0.05716346,0.,-0.01068594,-0.01904793,0.,0.00071548,0.0011
 7368,0.,-0.00010849,-0.00049035,0.,-0.00162199,-0.00109075,0.,-0.00195
 274,0.00013033,0.,0.00112253,-0.00059238,0.,0.19556701,0.00104973,-0.0
 0176675,0.,0.00328062,0.00573053,0.,-0.07002654,-0.07120746,0.,-0.0316
 1472,-0.02122700,0.,0.00301966,-0.00347970,0.,-0.00068002,0.00204331,0
 .,-0.00105377,-0.00053865,0.,-0.00023008,0.00030190,0.,0.00011410,0.00
 084775,0.,0.09707389,0.08937018,0.,0.,0.00436070,0.,0.,0.00571275,0.,0
 .,-0.02214493,0.,0.,0.00216641,0.,0.,0.00322280,0.,0.,0.00036574,0.,0.
 ,-0.00036806,0.,0.,-0.00006605,0.,0.,-0.00276703,0.,0.,0.00984529,-0.0
 0350017,0.00157472,0.,-0.00144164,0.00015992,0.,-0.00321884,-0.0036536
 1,0.,0.00408180,-0.02402924,0.,-0.05144934,0.00525561,0.,0.00133855,0.
 02770435,0.,0.00079345,0.00071937,0.,-0.00063964,0.00139527,0.,0.00003
 878,0.00000533,0.,-0.00032648,-0.00093286,0.,0.05432354,0.00204937,0.0
 0057742,0.,-0.00013626,0.00063079,0.,-0.00094496,-0.00000034,0.,-0.003
 23666,-0.01184418,0.,0.01328863,-0.34511754,0.,-0.00181992,-0.01059471
 ,0.,-0.00117456,0.00082156,0.,0.00008703,-0.00021737,0.,0.00003528,-0.
 00009129,0.,0.00005092,-0.00007410,0.,-0.00819886,0.36590977,0.,0.,0.0
 0523919,0.,0.,-0.00074404,0.,0.,0.00574977,0.,0.,-0.00059244,0.,0.,-0.
 03401880,0.,0.,0.00516507,0.,0.,-0.00261847,0.,0.,-0.00001806,0.,0.,0.
 00010875,0.,0.,-0.00032762,0.,0.,0.02205665\\0.00018009,-0.00003050,0.
 ,-0.00003537,0.00002328,0.,0.00000211,0.00001969,0.,0.00005390,-0.0000
 7067,0.,-0.00008910,0.00006672,0.,0.00004529,-0.00004153,0.,-0.0000439
 1,-0.00004885,0.,-0.00010316,0.00009813,0.,0.00001505,0.00000454,0.,-0
 .00002514,-0.00000165,0.,0.00000023,-0.00001917,0.\\\@


 THE RED LIGHT IS ALWAYS LONGER THAN THE GREEN LIGHT.

                     -- PETER'S THEORY OF RELATIVITY
 Job cpu time:       0 days  0 hours 28 minutes 55.3 seconds.
 Elapsed time:       0 days  0 hours  7 minutes 16.4 seconds.
 File lengths (MBytes):  RWF=    172 Int=      0 D2E=      0 Chk=     34 Scr=      1
 Normal termination of Gaussian 16 at Tue Dec  9 13:38:08 2025.
