 Entering Gaussian System, Link 0=g16
 Initial command:
 /share/software/user/restricted/gaussian/g16.B01/l1.exe "/home/users/jlapier/Chloroaromatics/Gau-30229.inp" -scrdir="/home/users/jlapier/Chloroaromatics/"
 Entering Link 1 = /share/software/user/restricted/gaussian/g16.B01/l1.exe PID=     30230.
  
 Copyright (c) 1988-2017, Gaussian, Inc.  All Rights Reserved.
  
 This is part of the Gaussian(R) 16 program.  It is based on
 the Gaussian(R) 09 system (copyright 2009, Gaussian, Inc.),
 the Gaussian(R) 03 system (copyright 2003, Gaussian, Inc.),
 the Gaussian(R) 98 system (copyright 1998, Gaussian, Inc.),
 the Gaussian(R) 94 system (copyright 1995, Gaussian, Inc.),
 the Gaussian 92(TM) system (copyright 1992, Gaussian, Inc.),
 the Gaussian 90(TM) system (copyright 1990, Gaussian, Inc.),
 the Gaussian 88(TM) system (copyright 1988, Gaussian, Inc.),
 the Gaussian 86(TM) system (copyright 1986, Carnegie Mellon
 University), and the Gaussian 82(TM) system (copyright 1983,
 Carnegie Mellon University). Gaussian is a federally registered
 trademark of Gaussian, Inc.
  
 This software contains proprietary and confidential information,
 including trade secrets, belonging to Gaussian, Inc.
  
 This software is provided under written license and may be
 used, copied, transmitted, or stored only in accord with that
 written license.
  
 The following legend is applicable only to US Government
 contracts under FAR:
  
                    RESTRICTED RIGHTS LEGEND
  
 Use, reproduction and disclosure by the US Government is
 subject to restrictions as set forth in subparagraphs (a)
 and (c) of the Commercial Computer Software - Restricted
 Rights clause in FAR 52.227-19.
  
 Gaussian, Inc.
 340 Quinnipiac St., Bldg. 40, Wallingford CT 06492
  
  
 ---------------------------------------------------------------
 Warning -- This program may not be used in any manner that
 competes with the business of Gaussian, Inc. or will provide
 assistance to any competitor of Gaussian, Inc.  The licensee
 of this program is prohibited from giving any competitor of
 Gaussian, Inc. access to this program.  By using this program,
 the user acknowledges that Gaussian, Inc. is engaged in the
 business of creating and licensing software in the field of
 computational chemistry and represents and warrants to the
 licensee that it is not a competitor of Gaussian, Inc. and that
 it will not use this program in any manner prohibited above.
 ---------------------------------------------------------------
  

 Cite this work as:
 Gaussian 16, Revision B.01,
 M. J. Frisch, G. W. Trucks, H. B. Schlegel, G. E. Scuseria, 
 M. A. Robb, J. R. Cheeseman, G. Scalmani, V. Barone, 
 G. A. Petersson, H. Nakatsuji, X. Li, M. Caricato, A. V. Marenich, 
 J. Bloino, B. G. Janesko, R. Gomperts, B. Mennucci, H. P. Hratchian, 
 J. V. Ortiz, A. F. Izmaylov, J. L. Sonnenberg, D. Williams-Young, 
 F. Ding, F. Lipparini, F. Egidi, J. Goings, B. Peng, A. Petrone, 
 T. Henderson, D. Ranasinghe, V. G. Zakrzewski, J. Gao, N. Rega, 
 G. Zheng, W. Liang, M. Hada, M. Ehara, K. Toyota, R. Fukuda, 
 J. Hasegawa, M. Ishida, T. Nakajima, Y. Honda, O. Kitao, H. Nakai, 
 T. Vreven, K. Throssell, J. A. Montgomery, Jr., J. E. Peralta, 
 F. Ogliaro, M. J. Bearpark, J. J. Heyd, E. N. Brothers, K. N. Kudin, 
 V. N. Staroverov, T. A. Keith, R. Kobayashi, J. Normand, 
 K. Raghavachari, A. P. Rendell, J. C. Burant, S. S. Iyengar, 
 J. Tomasi, M. Cossi, J. M. Millam, M. Klene, C. Adamo, R. Cammi, 
 J. W. Ochterski, R. L. Martin, K. Morokuma, O. Farkas, 
 J. B. Foresman, and D. J. Fox, Gaussian, Inc., Wallingford CT, 2016.
 
 ******************************************
 Gaussian 16:  ES64L-G16RevB.01 20-Dec-2017
                 9-Dec-2025 
 ******************************************
 %mem=8GB
 %nprocshare=4
 Will use up to    4 processors via shared memory.
 %oldchk=geometry_chks/124ClBzAnionRadical.chk
 %chk=frequency_chks/124ClBzAnionRadical_Freq.chk
 Copying data from "geometry_chks/124ClBzAnionRadical.chk" to current chk file "frequency_chks/124ClBzAnionRadical_Freq.chk"
 IOpt=  2 FromEx=T IUOpen= 4 IOptOp= 5 NList=   0 IFRang= 0 IUIn= 4 IUOut= 2.
 -------------------------------------------------------
 # opt freq 6-311++g(d,p) guess=read geom=allcheck m062x
 -------------------------------------------------------
 1/18=20,19=15,26=3,29=7,38=1/1,3;
 2/9=110,12=2,40=1/2;
 3/5=4,6=6,7=1111,11=2,14=-4,25=1,30=1,71=1,74=-55,116=-2/1,2,3;
 4/5=1/1;
 5/5=2,38=6/2;
 6/7=2,8=2,9=2,10=2,28=1/1;
 7//1,2,3,16;
 1/18=20,19=15,26=3/3(2);
 2/9=110/2;
 99//99;
 2/9=110/2;
 3/5=4,6=6,7=1111,11=2,14=-2,25=1,30=1,71=1,74=-55/1,2,3;
 4/5=5,16=3,69=1/1;
 5/5=2,38=5/2;
 7//1,2,3,16;
 1/18=20,19=15,26=3/3(-5);
 2/9=110/2;
 6/7=2,8=2,9=2,10=2,19=2,28=1/1;
 99/9=1/99;
 Structure from the checkpoint file:  "frequency_chks/124ClBzAnionRadical_Freq.chk"
 ------------------------------------
 3-Chloro-Benzene Anion Radical (124)
 ------------------------------------
 Charge = -1 Multiplicity = 2
 Redundant internal coordinates found in file.  (old form).
 C,0,-3.1758560676,0.1655236866,0.
 C,0,-1.9830275273,0.8969024955,0.
 C,0,-0.7551399779,0.2318270124,0.
 C,0,-0.7231700969,-1.1660985183,0.
 C,0,-1.9060172458,-1.9039862834,0.
 C,0,-3.1403549416,-1.2381538827,0.
 Cl,0,-4.5787512412,-2.1648196055,0.
 Cl,0,-4.6754919842,0.9949555973,0.
 H,0,-2.0034489158,1.9948888045,0.
 Cl,0,0.9033179657,1.2351174109,0.
 H,0,0.2466265343,-1.6815861539,0.
 H,0,-1.8833865017,-3.0024005633,0.
 Recover connectivity data from disk.

 GradGradGradGradGradGradGradGradGradGradGradGradGradGradGradGradGradGrad
 Berny optimization.
 Initialization pass.
                           ----------------------------
                           !    Initial Parameters    !
                           ! (Angstroms and Degrees)  !
 --------------------------                            --------------------------
 ! Name  Definition              Value          Derivative Info.                !
 --------------------------------------------------------------------------------
 ! R1    R(1,2)                  1.3992         estimate D2E/DX2                !
 ! R2    R(1,6)                  1.4041         estimate D2E/DX2                !
 ! R3    R(1,8)                  1.7137         estimate D2E/DX2                !
 ! R4    R(2,3)                  1.3964         estimate D2E/DX2                !
 ! R5    R(2,9)                  1.0982         estimate D2E/DX2                !
 ! R6    R(3,4)                  1.3983         estimate D2E/DX2                !
 ! R7    R(3,10)                 1.9383         estimate D2E/DX2                !
 ! R8    R(4,5)                  1.3941         estimate D2E/DX2                !
 ! R9    R(4,11)                 1.0983         estimate D2E/DX2                !
 ! R10   R(5,6)                  1.4025         estimate D2E/DX2                !
 ! R11   R(5,12)                 1.0986         estimate D2E/DX2                !
 ! R12   R(6,7)                  1.7111         estimate D2E/DX2                !
 ! A1    A(2,1,6)              120.0656         estimate D2E/DX2                !
 ! A2    A(2,1,8)              119.5391         estimate D2E/DX2                !
 ! A3    A(6,1,8)              120.3953         estimate D2E/DX2                !
 ! A4    A(1,2,3)              120.0438         estimate D2E/DX2                !
 ! A5    A(1,2,9)              120.4489         estimate D2E/DX2                !
 ! A6    A(3,2,9)              119.5074         estimate D2E/DX2                !
 ! A7    A(2,3,4)              119.7519         estimate D2E/DX2                !
 ! A8    A(2,3,10)             120.3862         estimate D2E/DX2                !
 ! A9    A(4,3,10)             119.8619         estimate D2E/DX2                !
 ! A10   A(3,4,5)              120.6468         estimate D2E/DX2                !
 ! A11   A(3,4,11)             119.3026         estimate D2E/DX2                !
 ! A12   A(5,4,11)             120.0506         estimate D2E/DX2                !
 ! A13   A(4,5,6)              119.6996         estimate D2E/DX2                !
 ! A14   A(4,5,12)             120.7766         estimate D2E/DX2                !
 ! A15   A(6,5,12)             119.5238         estimate D2E/DX2                !
 ! A16   A(1,6,5)              119.7923         estimate D2E/DX2                !
 ! A17   A(1,6,7)              121.3423         estimate D2E/DX2                !
 ! A18   A(5,6,7)              118.8654         estimate D2E/DX2                !
 ! D1    D(6,1,2,3)              0.0            estimate D2E/DX2                !
 ! D2    D(6,1,2,9)            180.0            estimate D2E/DX2                !
 ! D3    D(8,1,2,3)            180.0            estimate D2E/DX2                !
 ! D4    D(8,1,2,9)              0.0            estimate D2E/DX2                !
 ! D5    D(2,1,6,5)              0.0            estimate D2E/DX2                !
 ! D6    D(2,1,6,7)            180.0            estimate D2E/DX2                !
 ! D7    D(8,1,6,5)            180.0            estimate D2E/DX2                !
 ! D8    D(8,1,6,7)              0.0            estimate D2E/DX2                !
 ! D9    D(1,2,3,4)              0.0            estimate D2E/DX2                !
 ! D10   D(1,2,3,10)           180.0            estimate D2E/DX2                !
 ! D11   D(9,2,3,4)            180.0            estimate D2E/DX2                !
 ! D12   D(9,2,3,10)             0.0            estimate D2E/DX2                !
 ! D13   D(2,3,4,5)              0.0            estimate D2E/DX2                !
 ! D14   D(2,3,4,11)           180.0            estimate D2E/DX2                !
 ! D15   D(10,3,4,5)           180.0            estimate D2E/DX2                !
 ! D16   D(10,3,4,11)            0.0            estimate D2E/DX2                !
 ! D17   D(3,4,5,6)              0.0            estimate D2E/DX2                !
 ! D18   D(3,4,5,12)           180.0            estimate D2E/DX2                !
 ! D19   D(11,4,5,6)           180.0            estimate D2E/DX2                !
 ! D20   D(11,4,5,12)            0.0            estimate D2E/DX2                !
 ! D21   D(4,5,6,1)              0.0            estimate D2E/DX2                !
 ! D22   D(4,5,6,7)            180.0            estimate D2E/DX2                !
 ! D23   D(12,5,6,1)           180.0            estimate D2E/DX2                !
 ! D24   D(12,5,6,7)             0.0            estimate D2E/DX2                !
 --------------------------------------------------------------------------------
 Trust Radius=3.00D-01 FncErr=1.00D-07 GrdErr=1.00D-06 EigMax=2.50D+02 EigMin=1.00D-04
 Number of steps in this run=     64 maximum allowed number of steps=    100.
 GradGradGradGradGradGradGradGradGradGradGradGradGradGradGradGradGradGrad

                          Input orientation:                          
 ---------------------------------------------------------------------
 Center     Atomic      Atomic             Coordinates (Angstroms)
 Number     Number       Type             X           Y           Z
 ---------------------------------------------------------------------
      1          6           0       -3.175856    0.165524    0.000000
      2          6           0       -1.983028    0.896902    0.000000
      3          6           0       -0.755140    0.231827    0.000000
      4          6           0       -0.723170   -1.166099    0.000000
      5          6           0       -1.906017   -1.903986    0.000000
      6          6           0       -3.140355   -1.238154    0.000000
      7         17           0       -4.578751   -2.164820    0.000000
      8         17           0       -4.675492    0.994956    0.000000
      9          1           0       -2.003449    1.994889    0.000000
     10         17           0        0.903318    1.235117    0.000000
     11          1           0        0.246627   -1.681586    0.000000
     12          1           0       -1.883387   -3.002401    0.000000
 ---------------------------------------------------------------------
                    Distance matrix (angstroms):
                    1          2          3          4          5
     1  C    0.000000
     2  C    1.399198   0.000000
     3  C    2.421624   1.396436   0.000000
     4  C    2.790858   2.417274   1.398291   0.000000
     5  C    2.428037   2.801947   2.426153   1.394133   0.000000
     6  C    1.404126   2.428554   2.801802   2.418259   1.402470
     7  Cl   2.720039   4.013966   4.512640   3.982832   2.685431
     8  Cl   1.713728   2.694249   3.993936   4.504554   4.009221
     9  H    2.172813   1.098176   2.160246   3.410419   3.900092
    10  Cl   4.217071   2.906094   1.938317   2.900224   4.212640
    11  H    3.889113   3.408806   2.159788   1.098286   2.164102
    12  H    3.421436   3.900576   3.425371   2.172120   1.098647
                    6          7          8          9         10
     6  C    0.000000
     7  Cl   1.711050   0.000000
     8  Cl   2.709875   3.161256   0.000000
     9  H    3.427115   4.892377   2.853013   0.000000
    10  Cl   4.740080   6.450787   5.583977   3.004421   0.000000
    11  H    3.415886   4.849514   5.602778   4.310372   2.989716
    12  H    2.166226   2.822505   4.875932   4.998731   5.071714
                   11         12
    11  H    0.000000
    12  H    2.506293   0.000000
 Stoichiometry    C6H3Cl3(1-,2)
 Framework group  CS[SG(C6H3Cl3)]
 Deg. of freedom    21
 Full point group                 CS      NOp   2
 Largest Abelian subgroup         CS      NOp   2
 Largest concise Abelian subgroup C1      NOp   1
                         Standard orientation:                         
 ---------------------------------------------------------------------
 Center     Atomic      Atomic             Coordinates (Angstroms)
 Number     Number       Type             X           Y           Z
 ---------------------------------------------------------------------
      1          6           0        0.000000    0.868604    0.000000
      2          6           0        1.183371    0.122019    0.000000
      3          6           0        1.129669   -1.273384    0.000000
      4          6           0       -0.110088   -1.920082    0.000000
      5          6           0       -1.294885   -1.185328    0.000000
      6          6           0       -1.243356    0.216195    0.000000
      7         17           0       -2.710458    1.096709    0.000000
      8         17           0        0.080984    2.580418    0.000000
      9          1           0        2.159199    0.625756    0.000000
     10         17           0        2.762790   -2.317410    0.000000
     11          1           0       -0.143717   -3.017853    0.000000
     12          1           0       -2.270120   -1.691235    0.000000
 ---------------------------------------------------------------------
 Rotational constants (GHZ):           1.8592145           0.5625210           0.4318585
 Standard basis: 6-311++G(d,p) (5D, 7F)
 There are   189 symmetry adapted cartesian basis functions of A'  symmetry.
 There are    63 symmetry adapted cartesian basis functions of A"  symmetry.
 There are   180 symmetry adapted basis functions of A'  symmetry.
 There are    63 symmetry adapted basis functions of A"  symmetry.
   243 basis functions,   402 primitive gaussians,   252 cartesian basis functions
    46 alpha electrons       45 beta electrons
       nuclear repulsion energy       618.8371743276 Hartrees.
 NAtoms=   12 NActive=   12 NUniq=   12 SFac= 1.00D+00 NAtFMM=   60 NAOKFM=F Big=F
 Integral buffers will be    131072 words long.
 Raffenetti 2 integral format.
 Two-electron integral symmetry is turned on.
 One-electron integrals computed using PRISM.
 NBasis=   243 RedAO= T EigKep=  1.87D-06  NBF=   180    63
 NBsUse=   242 1.00D-06 EigRej=  9.28D-07 NBFU=   179    63
 Initial guess from the checkpoint file:  "frequency_chks/124ClBzAnionRadical_Freq.chk"
 B after Tr=     0.000000   -0.000000    0.000000
         Rot=    1.000000   -0.000000    0.000000   -0.000000 Ang=   0.00 deg.
 Initial guess orbital symmetries:
 Alpha Orbitals:
       Occupied  (A') (A') (A') (A') (A') (A') (A') (A') (A') (A')
                 (A') (A") (A') (A') (A") (A') (A') (A") (A') (A')
                 (A") (A") (A') (A") (A') (A") (A") (A') (A') (A")
                 (A') (A') (A') (A') (A') (A') (A') (A') (A') (A')
                 (A') (A') (A') (A') (A') (A')
       Virtual   (A') (A') (A') (A') (A') (A') (A') (A') (A') (A')
                 (A') (A') (A') (A') (A') (A') (A') (A') (A') (A')
                 (A') (A') (A') (A') (A') (A') (A') (A') (A') (A')
                 (A') (A') (A') (A') (A') (A') (A') (A') (A') (A')
                 (A') (A') (A') (A') (A') (A') (A') (A') (A') (A')
                 (A') (A') (A') (A') (A') (A') (A') (A') (A') (A')
                 (A') (A') (A') (A') (A') (A') (A') (A') (A') (A')
                 (A') (A') (A') (A') (A') (A') (A') (A') (A') (A')
                 (A') (A') (A') (A') (A') (A') (A') (A') (A') (A')
                 (A') (A') (A') (A') (A') (A') (A') (A') (A') (A')
                 (A') (A') (A') (A') (A') (A') (A') (A') (A') (A')
                 (A') (A') (A') (A') (A') (A') (A') (A') (A') (A')
                 (A') (A') (A') (A') (A') (A') (A') (A') (A') (A')
                 (A') (A') (A') (A') (A') (A') (A') (A') (A') (A')
                 (A') (A') (A") (A") (A") (A") (A") (A") (A") (A")
                 (A") (A") (A") (A") (A") (A") (A") (A") (A") (A")
                 (A") (A") (A") (A") (A") (A") (A") (A") (A") (A")
                 (A") (A") (A") (A") (A") (A") (A") (A") (A") (A")
                 (A") (A") (A") (A") (A") (A") (A") (A") (A") (A")
                 (A") (A") (A") (A") (A") (A")
 Beta  Orbitals:
       Occupied  (A') (A') (A') (A') (A') (A') (A') (A') (A') (A')
                 (A') (A") (A') (A') (A") (A') (A') (A") (A') (A')
                 (A") (A") (A') (A") (A") (A') (A") (A') (A") (A')
                 (A') (A') (A') (A') (A') (A') (A') (A') (A') (A')
                 (A') (A') (A') (A') (A')
       Virtual   (A') (A') (A') (A') (A') (A') (A') (A') (A') (A')
                 (A') (A') (A') (A') (A') (A') (A') (A') (A') (A')
                 (A') (A') (A') (A') (A') (A') (A') (A') (A') (A')
                 (A') (A') (A') (A') (A') (A') (A') (A') (A') (A')
                 (A') (A') (A') (A') (A') (A') (A') (A') (A') (A')
                 (A') (A') (A') (A') (A') (A') (A') (A') (A') (A')
                 (A') (A') (A') (A') (A') (A') (A') (A') (A') (A')
                 (A') (A') (A') (A') (A') (A') (A') (A') (A') (A')
                 (A') (A') (A') (A') (A') (A') (A') (A') (A') (A')
                 (A') (A') (A') (A') (A') (A') (A') (A') (A') (A')
                 (A') (A') (A') (A') (A') (A') (A') (A') (A') (A')
                 (A') (A') (A') (A') (A') (A') (A') (A') (A') (A')
                 (A') (A') (A') (A') (A') (A') (A') (A') (A') (A')
                 (A') (A') (A') (A') (A') (A') (A') (A') (A') (A')
                 (A') (A') (A') (A") (A") (A") (A") (A") (A") (A")
                 (A") (A") (A") (A") (A") (A") (A") (A") (A") (A")
                 (A") (A") (A") (A") (A") (A") (A") (A") (A") (A")
                 (A") (A") (A") (A") (A") (A") (A") (A") (A") (A")
                 (A") (A") (A") (A") (A") (A") (A") (A") (A") (A")
                 (A") (A") (A") (A") (A") (A") (A")
 Initial guess <Sx>= 0.0000 <Sy>= 0.0000 <Sz>= 0.5000 <S**2>= 0.7500 S= 0.5000
 Keep R1 and R2 ints in memory in symmetry-blocked form, NReq=695666862.
 Requested convergence on RMS density matrix=1.00D-08 within 128 cycles.
 Requested convergence on MAX density matrix=1.00D-06.
 Requested convergence on             energy=1.00D-06.
 No special actions if energy rises.
 EnCoef did     4 forward-backward iterations
 EnCoef did     3 forward-backward iterations
 EnCoef did     7 forward-backward iterations
 SCF Done:  E(UM062X) =  -1610.96557687     A.U. after   57 cycles
            NFock= 57  Conv=0.45D-08     -V/T= 2.0022
 <Sx>= 0.0000 <Sy>= 0.0000 <Sz>= 0.5000 <S**2>= 0.7554 S= 0.5027
 <L.S>=  0.00000000000    
 Annihilation of the first spin contaminant:
 S**2 before annihilation     0.7554,   after     0.7500

 **********************************************************************

            Population analysis using the SCF Density.

 **********************************************************************

 Orbital symmetries:
 Alpha Orbitals:
       Occupied  (A') (A') (A') (A') (A') (A') (A') (A') (A') (A')
                 (A') (A') (A') (A") (A') (A') (A") (A') (A') (A")
                 (A') (A') (A') (A') (A') (A') (A') (A') (A') (A')
                 (A') (A') (A') (A") (A') (A') (A") (A') (A") (A')
                 (A') (A") (A') (A") (A") (A')
       Virtual   (A') (A') (A') (A") (A') (A") (A') (A") (A') (A")
                 (A') (A') (A") (A') (A') (A') (A") (A') (A") (A')
                 (A') (A") (A') (A') (A") (A') (A') (A') (A") (A')
                 (A") (A') (A') (A") (A') (A') (A') (A') (A') (A')
                 (A') (A') (A') (A') (A') (A') (A') (A') (A') (A')
                 (A") (A') (A') (A') (A') (A") (A') (A') (A") (A')
                 (A') (A") (A') (A') (A") (A") (A') (A") (A") (A')
                 (A') (A") (A') (A') (A') (A') (A") (A') (A') (A')
                 (A') (A') (A") (A') (A") (A') (A') (A') (A") (A')
                 (A') (A') (A") (A') (A") (A') (A") (A') (A') (A')
                 (A") (A') (A") (A') (A') (A') (A") (A') (A') (A")
                 (A") (A') (A') (A') (A') (A") (A') (A') (A") (A')
                 (A") (A') (A') (A') (A") (A") (A") (A') (A') (A')
                 (A") (A') (A') (A') (A") (A') (A") (A') (A") (A")
                 (A") (A') (A') (A') (A') (A') (A') (A') (A') (A')
                 (A') (A") (A') (A') (A') (A') (A") (A") (A') (A")
                 (A") (A') (A") (A') (A') (A') (A') (A') (A') (A')
                 (A') (A') (A') (A') (A') (A') (A') (A') (A') (A')
                 (A') (A') (A') (A') (A") (A") (A") (A') (A') (A')
                 (A') (A') (A') (A') (A') (A')
 Beta  Orbitals:
       Occupied  (A') (A') (A') (A') (A') (A') (A') (A') (A') (A')
                 (A') (A') (A') (A") (A') (A') (A") (A') (A') (A")
                 (A') (A') (A') (A') (A') (A') (A') (A') (A') (A')
                 (A') (A') (A') (A") (A') (A") (A') (A') (A") (A')
                 (A') (A") (A") (A') (A")
       Virtual   (A') (A') (A') (A") (A') (A") (A') (A') (A') (A")
                 (A") (A') (A') (A") (A') (A') (A") (A') (A') (A")
                 (A') (A') (A") (A') (A") (A') (A') (A') (A') (A")
                 (A') (A") (A') (A') (A') (A") (A') (A') (A') (A')
                 (A') (A') (A') (A') (A') (A') (A') (A') (A') (A')
                 (A') (A") (A') (A') (A') (A') (A") (A') (A') (A")
                 (A') (A') (A") (A') (A') (A") (A") (A") (A') (A")
                 (A') (A') (A") (A') (A') (A') (A') (A') (A") (A')
                 (A') (A') (A') (A") (A') (A") (A') (A') (A') (A")
                 (A') (A') (A') (A") (A') (A") (A') (A") (A') (A')
                 (A') (A") (A') (A") (A') (A') (A') (A") (A') (A')
                 (A") (A') (A") (A') (A') (A') (A") (A') (A') (A")
                 (A') (A") (A') (A') (A') (A") (A") (A") (A') (A')
                 (A') (A") (A') (A') (A') (A") (A') (A") (A') (A")
                 (A") (A") (A') (A') (A') (A') (A') (A') (A') (A')
                 (A') (A') (A") (A') (A') (A') (A') (A") (A") (A')
                 (A") (A") (A') (A") (A') (A') (A') (A') (A') (A')
                 (A') (A') (A') (A') (A') (A') (A') (A') (A') (A')
                 (A') (A') (A') (A') (A') (A") (A") (A") (A') (A')
                 (A') (A') (A') (A') (A') (A') (A')
 The electronic state is 2-A'.
 Alpha  occ. eigenvalues -- -102.56620-102.55803-102.45459 -10.48474 -10.48395
 Alpha  occ. eigenvalues --  -10.43450 -10.41911 -10.41516 -10.41048  -9.70964
 Alpha  occ. eigenvalues --   -9.70152  -9.59552  -7.43468  -7.42814  -7.42807
 Alpha  occ. eigenvalues --   -7.42672  -7.42011  -7.41987  -7.32189  -7.31418
 Alpha  occ. eigenvalues --   -7.31394  -0.89998  -0.84484  -0.80800  -0.73025
 Alpha  occ. eigenvalues --   -0.70318  -0.66456  -0.57009  -0.53440  -0.45565
 Alpha  occ. eigenvalues --   -0.42278  -0.40401  -0.37271  -0.36654  -0.35693
 Alpha  occ. eigenvalues --   -0.30049  -0.30019  -0.28303  -0.27709  -0.26891
 Alpha  occ. eigenvalues --   -0.25198  -0.20482  -0.18301  -0.17611  -0.14624
 Alpha  occ. eigenvalues --    0.03963
 Alpha virt. eigenvalues --    0.10815   0.12187   0.12534   0.13418   0.14108
 Alpha virt. eigenvalues --    0.14321   0.14939   0.16866   0.17364   0.18708
 Alpha virt. eigenvalues --    0.18970   0.20018   0.20058   0.20362   0.21479
 Alpha virt. eigenvalues --    0.22902   0.22906   0.23517   0.23882   0.24336
 Alpha virt. eigenvalues --    0.24630   0.25676   0.26110   0.26676   0.27089
 Alpha virt. eigenvalues --    0.27475   0.27938   0.29138   0.29801   0.30476
 Alpha virt. eigenvalues --    0.31218   0.32139   0.32376   0.33834   0.33867
 Alpha virt. eigenvalues --    0.34911   0.36320   0.36883   0.36959   0.37716
 Alpha virt. eigenvalues --    0.39242   0.40518   0.41350   0.41886   0.42146
 Alpha virt. eigenvalues --    0.43274   0.46558   0.48067   0.48861   0.49717
 Alpha virt. eigenvalues --    0.57220   0.57902   0.58027   0.60673   0.61133
 Alpha virt. eigenvalues --    0.61168   0.63267   0.64509   0.65874   0.67526
 Alpha virt. eigenvalues --    0.67895   0.69459   0.70872   0.72844   0.73764
 Alpha virt. eigenvalues --    0.75815   0.77267   0.77324   0.78987   0.79670
 Alpha virt. eigenvalues --    0.83196   0.83326   0.84398   0.87360   0.90214
 Alpha virt. eigenvalues --    0.90798   0.94636   0.94681   0.97217   0.99987
 Alpha virt. eigenvalues --    1.01199   1.02772   1.03952   1.04349   1.04658
 Alpha virt. eigenvalues --    1.05810   1.06952   1.07458   1.08622   1.10353
 Alpha virt. eigenvalues --    1.10870   1.12395   1.12908   1.13825   1.15018
 Alpha virt. eigenvalues --    1.17045   1.18308   1.18369   1.19647   1.21904
 Alpha virt. eigenvalues --    1.23415   1.28211   1.30368   1.34151   1.40423
 Alpha virt. eigenvalues --    1.41855   1.41933   1.43749   1.47163   1.47785
 Alpha virt. eigenvalues --    1.49978   1.50075   1.61844   1.65543   1.68885
 Alpha virt. eigenvalues --    1.73517   1.73906   1.79402   1.80083   1.84694
 Alpha virt. eigenvalues --    1.85728   1.86997   1.92376   1.98610   2.03033
 Alpha virt. eigenvalues --    2.07109   2.07898   2.08416   2.09729   2.11192
 Alpha virt. eigenvalues --    2.16898   2.20480   2.22121   2.30844   2.31661
 Alpha virt. eigenvalues --    2.38194   2.40040   2.41805   2.45677   2.47653
 Alpha virt. eigenvalues --    2.50139   2.52001   2.56409   2.59792   2.61613
 Alpha virt. eigenvalues --    2.64642   2.66833   2.70572   2.73458   2.76076
 Alpha virt. eigenvalues --    2.83122   2.83253   2.86070   2.86807   2.89718
 Alpha virt. eigenvalues --    2.90746   2.97270   2.98167   3.00963   3.07109
 Alpha virt. eigenvalues --    3.07684   3.24334   3.26266   3.31380   3.37907
 Alpha virt. eigenvalues --    3.44190   3.51951   3.59014   3.68637   3.83429
 Alpha virt. eigenvalues --    3.98656   4.04314   4.22282   4.28710   4.96842
 Alpha virt. eigenvalues --   10.06935  10.13007  10.14825  23.63779  24.07487
 Alpha virt. eigenvalues --   24.10244  24.20180  24.26249  24.34098  26.01436
 Alpha virt. eigenvalues --   26.09601  26.12295  26.31457  26.33701  26.46530
 Alpha virt. eigenvalues --   26.73558  26.78757  26.99984 216.16754 216.23725
 Alpha virt. eigenvalues --  216.25173
  Beta  occ. eigenvalues -- -102.56618-102.55763-102.45067 -10.48445 -10.48343
  Beta  occ. eigenvalues --  -10.43403 -10.41945 -10.41545 -10.40245  -9.70963
  Beta  occ. eigenvalues --   -9.70131  -9.59327  -7.43458  -7.42820  -7.42804
  Beta  occ. eigenvalues --   -7.42588  -7.41992  -7.41970  -7.31370  -7.31249
  Beta  occ. eigenvalues --   -7.31230  -0.89881  -0.84353  -0.80252  -0.71548
  Beta  occ. eigenvalues --   -0.69900  -0.65560  -0.56812  -0.52735  -0.45066
  Beta  occ. eigenvalues --   -0.41927  -0.39883  -0.37027  -0.36576  -0.34857
  Beta  occ. eigenvalues --   -0.29979  -0.29652  -0.27288  -0.27241  -0.25936
  Beta  occ. eigenvalues --   -0.23304  -0.19834  -0.17565  -0.17432  -0.13945
  Beta virt. eigenvalues --    0.11021   0.11942   0.12511   0.13294   0.14142
  Beta virt. eigenvalues --    0.14660   0.14862   0.16290   0.16865   0.17079
  Beta virt. eigenvalues --    0.18514   0.18988   0.19481   0.19687   0.20713
  Beta virt. eigenvalues --    0.21690   0.22572   0.22678   0.23253   0.23621
  Beta virt. eigenvalues --    0.24523   0.24715   0.25039   0.25516   0.26334
  Beta virt. eigenvalues --    0.26676   0.26861   0.27478   0.28537   0.29464
  Beta virt. eigenvalues --    0.30179   0.30900   0.31566   0.32166   0.32319
  Beta virt. eigenvalues --    0.34037   0.34279   0.36183   0.36587   0.36907
  Beta virt. eigenvalues --    0.38031   0.38922   0.40222   0.41245   0.41529
  Beta virt. eigenvalues --    0.42128   0.43220   0.46857   0.47931   0.48942
  Beta virt. eigenvalues --    0.49930   0.57427   0.58140   0.58342   0.60811
  Beta virt. eigenvalues --    0.61288   0.61418   0.63304   0.64571   0.66185
  Beta virt. eigenvalues --    0.67332   0.68163   0.69670   0.70710   0.72943
  Beta virt. eigenvalues --    0.73784   0.75814   0.77337   0.78052   0.79494
  Beta virt. eigenvalues --    0.80010   0.83141   0.83717   0.84463   0.87635
  Beta virt. eigenvalues --    0.89977   0.90881   0.94404   0.94727   0.97353
  Beta virt. eigenvalues --    0.99955   1.01274   1.02985   1.03958   1.04437
  Beta virt. eigenvalues --    1.04745   1.05606   1.07729   1.08545   1.08718
  Beta virt. eigenvalues --    1.10511   1.11249   1.12574   1.13805   1.13953
  Beta virt. eigenvalues --    1.15701   1.17126   1.18655   1.19079   1.20289
  Beta virt. eigenvalues --    1.22113   1.23664   1.28429   1.30796   1.34284
  Beta virt. eigenvalues --    1.40766   1.42268   1.42633   1.44144   1.47325
  Beta virt. eigenvalues --    1.47907   1.49701   1.50441   1.61901   1.65789
  Beta virt. eigenvalues --    1.69206   1.73769   1.74247   1.79719   1.80623
  Beta virt. eigenvalues --    1.84953   1.85902   1.87425   1.92679   1.98905
  Beta virt. eigenvalues --    2.03279   2.07488   2.08132   2.08850   2.10122
  Beta virt. eigenvalues --    2.11423   2.17156   2.21060   2.22713   2.30913
  Beta virt. eigenvalues --    2.31958   2.38424   2.40101   2.41945   2.45801
  Beta virt. eigenvalues --    2.47933   2.50817   2.52353   2.56552   2.60142
  Beta virt. eigenvalues --    2.62132   2.65527   2.67059   2.71605   2.73775
  Beta virt. eigenvalues --    2.76570   2.83440   2.83586   2.86183   2.87257
  Beta virt. eigenvalues --    2.89950   2.90942   2.97430   2.98605   3.01013
  Beta virt. eigenvalues --    3.07093   3.08645   3.25662   3.26891   3.31757
  Beta virt. eigenvalues --    3.38083   3.45129   3.52667   3.59683   3.69235
  Beta virt. eigenvalues --    3.83803   3.99362   4.04631   4.22622   4.29387
  Beta virt. eigenvalues --    4.97515  10.06960  10.13028  10.15004  23.63878
  Beta virt. eigenvalues --   24.07735  24.10303  24.20414  24.26375  24.34335
  Beta virt. eigenvalues --   26.01486  26.09685  26.13021  26.31812  26.33849
  Beta virt. eigenvalues --   26.47000  26.73688  26.80672  27.00140 216.16826
  Beta virt. eigenvalues --  216.23810 216.25673
          Condensed to atoms (all electrons):
               1          2          3          4          5          6
     1  C   25.703973   0.552481  -2.191608  -1.189507  -8.715617  -6.081703
     2  C    0.552481  26.160225  -5.656761 -11.950982   1.911991 -14.079317
     3  C   -2.191608  -5.656761  31.953056   2.980747  -5.746715   0.335355
     4  C   -1.189507 -11.950982   2.980747  19.919650   1.152536   1.127532
     5  C   -8.715617   1.911991  -5.746715   1.152536  15.724960  -2.567199
     6  C   -6.081703 -14.079317   0.335355   1.127532  -2.567199  38.955508
     7  Cl   0.415953   0.248317   0.214431  -0.135365   0.119099  -1.602443
     8  Cl  -2.027990   1.520368  -1.145612  -0.135800   1.110986  -1.916632
     9  H   -0.441576   1.713775  -1.519364  -0.568288   0.441235  -1.013618
    10  Cl  -0.548256   5.289875 -12.532510  -3.413211   2.272660  -3.972097
    11  H    0.142852   0.307282  -0.962467   0.024313   0.233661  -0.770210
    12  H    0.256423   0.979992  -0.309198  -0.986418   0.818982  -2.431581
               7          8          9         10         11         12
     1  C    0.415953  -2.027990  -0.441576  -0.548256   0.142852   0.256423
     2  C    0.248317   1.520368   1.713775   5.289875   0.307282   0.979992
     3  C    0.214431  -1.145612  -1.519364 -12.532510  -0.962467  -0.309198
     4  C   -0.135365  -0.135800  -0.568288  -3.413211   0.024313  -0.986418
     5  C    0.119099   1.110986   0.441235   2.272660   0.233661   0.818982
     6  C   -1.602443  -1.916632  -1.013618  -3.972097  -0.770210  -2.431581
     7  Cl  17.696093  -0.273154  -0.009066  -0.008022  -0.015959  -0.014081
     8  Cl  -0.273154  18.562662   0.334774   0.454729   0.048543   0.174565
     9  H   -0.009066   0.334774   0.870396   0.959780   0.043185   0.077181
    10  Cl  -0.008022   0.454729   0.959780  27.185659   0.807043   0.549853
    11  H   -0.015959   0.048543   0.043185   0.807043   0.800888   0.247092
    12  H   -0.014081   0.174565   0.077181   0.549853   0.247092   1.596408
          Atomic-Atomic Spin Densities.
               1          2          3          4          5          6
     1  C    0.873516  -1.192873   1.399378   0.213526  -0.050557  -0.017834
     2  C   -1.192873   4.576708  -6.107969  -1.978299   3.072360  -7.574906
     3  C    1.399378  -6.107969  13.125728   4.275835  -2.345525   4.668378
     4  C    0.213526  -1.978299   4.275835   1.102019  -1.852504   4.250002
     5  C   -0.050557   3.072360  -2.345525  -1.852504   1.592773  -4.463400
     6  C   -0.017834  -7.574906   4.668378   4.250002  -4.463400  13.764364
     7  Cl  -0.092145  -0.036049  -0.008761  -0.003747   0.010063   0.147730
     8  Cl  -0.483678   1.619210  -0.652252  -0.501082   0.756767  -2.587635
     9  H   -0.416026   1.145722  -1.352223  -0.437984   0.405318  -1.039944
    10  Cl  -0.541291   4.980576 -11.183130  -3.624420   2.192515  -4.158260
    11  H    0.080654   0.473836  -0.767746  -0.667006   0.278328  -0.752781
    12  H    0.338444   0.929305  -0.320212  -0.930998   0.346026  -2.323265
               7          8          9         10         11         12
     1  C   -0.092145  -0.483678  -0.416026  -0.541291   0.080654   0.338444
     2  C   -0.036049   1.619210   1.145722   4.980576   0.473836   0.929305
     3  C   -0.008761  -0.652252  -1.352223 -11.183130  -0.767746  -0.320212
     4  C   -0.003747  -0.501082  -0.437984  -3.624420  -0.667006  -0.930998
     5  C    0.010063   0.756767   0.405318   2.192515   0.278328   0.346026
     6  C    0.147730  -2.587635  -1.039944  -4.158260  -0.752781  -2.323265
     7  Cl   0.032296  -0.011256  -0.000967   0.006913  -0.001537  -0.034773
     8  Cl  -0.011256   0.873065   0.327081   0.472488   0.043219   0.181196
     9  H   -0.000967   0.327081   0.376117   0.948186   0.045598   0.074971
    10  Cl   0.006913   0.472488   0.948186   9.752497   0.789904   0.556096
    11  H   -0.001537   0.043219   0.045598   0.789904   0.286028   0.267789
    12  H   -0.034773   0.181196   0.074971   0.556096   0.267789   1.076131
 Mulliken charges and spin densities:
               1          2
     1  C    0.124576   0.111113
     2  C   -0.997244  -0.092380
     3  C    0.580648   0.731502
     4  C   -0.825206  -0.154658
     5  C   -0.756578  -0.057837
     6  C    0.016405  -0.087550
     7  Cl   0.364197   0.007769
     8  Cl   0.292561   0.037124
     9  H    0.111587   0.075849
    10  Cl  -0.045504   0.192073
    11  H    0.093778   0.076285
    12  H    0.040782   0.160709
 Sum of Mulliken charges =  -1.00000   1.00000
 Mulliken charges and spin densities with hydrogens summed into heavy atoms:
               1          2
     1  C    0.124576   0.111113
     2  C   -0.885658  -0.016531
     3  C    0.580648   0.731502
     4  C   -0.731428  -0.078373
     5  C   -0.715796   0.102873
     6  C    0.016405  -0.087550
     7  Cl   0.364197   0.007769
     8  Cl   0.292561   0.037124
    10  Cl  -0.045504   0.192073
 Electronic spatial extent (au):  <R**2>=           2299.4552
 Charge=             -1.0000 electrons
 Dipole moment (field-independent basis, Debye):
    X=             -6.6885    Y=              4.8145    Z=              0.0000  Tot=              8.2411
 Quadrupole moment (field-independent basis, Debye-Ang):
   XX=           -111.3749   YY=           -103.3515   ZZ=            -80.0466
   XY=             25.1819   XZ=              0.0000   YZ=              0.0000
 Traceless Quadrupole moment (field-independent basis, Debye-Ang):
   XX=            -13.1172   YY=             -5.0938   ZZ=             18.2111
   XY=             25.1819   XZ=              0.0000   YZ=              0.0000
 Octapole moment (field-independent basis, Debye-Ang**2):
  XXX=            -95.0337  YYY=             61.9156  ZZZ=              0.0000  XYY=            -64.9534
  XXY=             80.5197  XXZ=              0.0000  XZZ=             -5.1883  YZZ=             10.5149
  YYZ=              0.0000  XYZ=              0.0000
 Hexadecapole moment (field-independent basis, Debye-Ang**3):
 XXXX=          -1999.0907 YYYY=          -1710.6674 ZZZZ=           -103.4356 XXXY=            641.5656
 XXXZ=              0.0000 YYYX=            552.0316 YYYZ=              0.0000 ZZZX=              0.0000
 ZZZY=              0.0000 XXYY=           -742.0656 XXZZ=           -302.8637 YYZZ=           -284.8237
 XXYZ=              0.0000 YYXZ=              0.0000 ZZXY=            131.1160
 N-N= 6.188371743276D+02 E-N=-5.068854761777D+03  KE= 1.607408094706D+03
 Symmetry A'   KE= 1.463658906871D+03
 Symmetry A"   KE= 1.437491878347D+02
 Symmetry A'   SP= 1.000000000000D+00
 Symmetry A"   SP= 1.143137369703D-14
                          Isotropic Fermi Contact Couplings
        Atom                 a.u.       MegaHertz       Gauss      10(-4) cm-1
     1  C(13)              0.08676      97.53858      34.80419      32.53537
     2  C(13)             -0.01693     -19.03443      -6.79196      -6.34920
     3  C(13)              0.54668     614.56969     219.29375     204.99838
     4  C(13)             -0.01847     -20.76750      -7.41036      -6.92729
     5  C(13)              0.04340      48.79406      17.41094      16.27595
     6  C(13)              0.00399       4.47995       1.59856       1.49435
     7  Cl(35)             0.00170       0.74464       0.26571       0.24838
     8  Cl(35)             0.05337      23.40079       8.34999       7.80566
     9  H(1)               0.00880      39.32319      14.03149      13.11681
    10  Cl(35)             0.66412     291.19147     103.90436      97.13102
    11  H(1)               0.00654      29.22289      10.42745       9.74771
    12  H(1)               0.00317      14.18148       5.06030       4.73043
 --------------------------------------------------------
       Center         ----  Spin Dipole Couplings  ----
                      3XX-RR        3YY-RR        3ZZ-RR
 --------------------------------------------------------
     1   Atom        0.010543     -0.011728      0.001185
     2   Atom        0.001080      0.049289     -0.050369
     3   Atom        0.273885     -0.080426     -0.193459
     4   Atom        0.033844      0.013687     -0.047530
     5   Atom       -0.001654     -0.000538      0.002192
     6   Atom        0.020575      0.013285     -0.033860
     7   Atom        0.032681     -0.001629     -0.031053
     8   Atom       -0.081964      0.155962     -0.073998
     9   Atom       -0.004374      0.011719     -0.007345
    10   Atom        0.829708     -0.079131     -0.750577
    11   Atom        0.006305      0.000952     -0.007256
    12   Atom        0.005882     -0.002837     -0.003045
 --------------------------------------------------------
                        XY            XZ            YZ
 --------------------------------------------------------
     1   Atom        0.017447      0.000000      0.000000
     2   Atom        0.015609      0.000000      0.000000
     3   Atom       -0.313598      0.000000      0.000000
     4   Atom        0.028647      0.000000      0.000000
     5   Atom       -0.009311      0.000000      0.000000
     6   Atom       -0.003863      0.000000      0.000000
     7   Atom       -0.003841      0.000000      0.000000
     8   Atom       -0.010091      0.000000      0.000000
     9   Atom        0.002466      0.000000      0.000000
    10   Atom       -1.046399      0.000000      0.000000
    11   Atom        0.007896      0.000000      0.000000
    12   Atom        0.000830      0.000000      0.000000
 --------------------------------------------------------


 ---------------------------------------------------------------------------------
              Anisotropic Spin Dipole Couplings in Principal Axis System
 ---------------------------------------------------------------------------------

       Atom             a.u.   MegaHertz   Gauss  10(-4) cm-1        Axes

              Baa    -0.0213    -2.857    -1.019    -0.953 -0.4806  0.8769  0.0000
     1 C(13)  Bbb     0.0012     0.159     0.057     0.053  0.0000  0.0000  1.0000
              Bcc     0.0201     2.698     0.963     0.900  0.8769  0.4806  0.0000
 
              Baa    -0.0504    -6.759    -2.412    -2.255  0.0000  0.0000  1.0000
     2 C(13)  Bbb    -0.0035    -0.474    -0.169    -0.158  0.9590 -0.2834 -0.0000
              Bcc     0.0539     7.233     2.581     2.413  0.2834  0.9590  0.0000
 
              Baa    -0.2634   -35.352   -12.615   -11.792  0.5041  0.8637  0.0000
     3 C(13)  Bbb    -0.1935   -25.960    -9.263    -8.659  0.0000  0.0000  1.0000
              Bcc     0.4569    61.312    21.878    20.452  0.8637 -0.5041 -0.0000
 
              Baa    -0.0475    -6.378    -2.276    -2.128  0.0000  0.0000  1.0000
     4 C(13)  Bbb    -0.0066    -0.886    -0.316    -0.296 -0.5780  0.8161 -0.0000
              Bcc     0.0541     7.264     2.592     2.423  0.8161  0.5780  0.0000
 
              Baa    -0.0104    -1.399    -0.499    -0.467  0.7279  0.6856  0.0000
     5 C(13)  Bbb     0.0022     0.294     0.105     0.098  0.0000  0.0000  1.0000
              Bcc     0.0082     1.105     0.394     0.368 -0.6856  0.7279 -0.0000
 
              Baa    -0.0339    -4.544    -1.621    -1.516  0.0000  0.0000  1.0000
     6 C(13)  Bbb     0.0116     1.559     0.556     0.520  0.3960  0.9182  0.0000
              Bcc     0.0222     2.985     1.065     0.996  0.9182 -0.3960 -0.0000
 
              Baa    -0.0311    -1.625    -0.580    -0.542  0.0000  0.0000  1.0000
     7 Cl(35) Bbb    -0.0021    -0.107    -0.038    -0.036  0.1099  0.9939  0.0000
              Bcc     0.0331     1.733     0.618     0.578  0.9939 -0.1099 -0.0000
 
              Baa    -0.0824    -4.312    -1.539    -1.438  0.9991  0.0423  0.0000
     8 Cl(35) Bbb    -0.0740    -3.873    -1.382    -1.292  0.0000  0.0000  1.0000
              Bcc     0.1564     8.185     2.921     2.730 -0.0423  0.9991  0.0000
 
              Baa    -0.0073    -3.919    -1.398    -1.307  0.0000  0.0000  1.0000
     9 H(1)   Bbb    -0.0047    -2.531    -0.903    -0.844  0.9890 -0.1481 -0.0000
              Bcc     0.0121     6.450     2.302     2.151  0.1481  0.9890  0.0000
 
              Baa    -0.7655   -40.066   -14.296   -13.364  0.5485  0.8362  0.0000
    10 Cl(35) Bbb    -0.7506   -39.283   -14.017   -13.104  0.0000  0.0000  1.0000
              Bcc     1.5161    79.349    28.314    26.468  0.8362 -0.5485 -0.0000
 
              Baa    -0.0073    -3.872    -1.382    -1.291  0.0000  0.0000  1.0000
    11 H(1)   Bbb    -0.0047    -2.513    -0.897    -0.838 -0.5827  0.8127 -0.0000
              Bcc     0.0120     6.384     2.278     2.130  0.8127  0.5827  0.0000
 
              Baa    -0.0030    -1.625    -0.580    -0.542  0.0000  0.0000  1.0000
    12 H(1)   Bbb    -0.0029    -1.556    -0.555    -0.519 -0.0939  0.9956 -0.0000
              Bcc     0.0060     3.180     1.135     1.061  0.9956  0.0939  0.0000
 

 ---------------------------------------------------------------------------------

 Calling FoFJK, ICntrl=      2127 FMM=F ISym2X=1 I1Cent= 0 IOpClX= 1 NMat=1 NMatS=1 NMatT=0.
 ***** Axes restored to original set *****
 -------------------------------------------------------------------
 Center     Atomic                   Forces (Hartrees/Bohr)
 Number     Number              X              Y              Z
 -------------------------------------------------------------------
      1        6           0.031216476   -0.012902140   -0.000000000
      2        6           0.006369723   -0.012518130   -0.000000000
      3        6          -0.064263157   -0.035540413   -0.000000000
      4        6          -0.005495245    0.006137774   -0.000000000
      5        6           0.002201138    0.001513437   -0.000000000
      6        6           0.023602812    0.012249741   -0.000000000
      7       17          -0.017735789   -0.011245029   -0.000000000
      8       17          -0.026119791    0.013634780   -0.000000000
      9        1          -0.002007945   -0.002891601   -0.000000000
     10       17           0.057618086    0.034385653   -0.000000000
     11        1          -0.003123257    0.001313690   -0.000000000
     12        1          -0.002263050    0.005862236   -0.000000000
 -------------------------------------------------------------------
 Cartesian Forces:  Max     0.064263157 RMS     0.019284404

 GradGradGradGradGradGradGradGradGradGradGradGradGradGradGradGradGradGrad
 Berny optimization.
 FormGI is forming the generalized inverse of G from B-inverse, IUseBI=4.
 Internal  Forces:  Max     0.067097288 RMS     0.010852602
 Search for a local minimum.
 Step number   1 out of a maximum of   64
 All quantities printed in internal units (Hartrees-Bohrs-Radians)
 Mixed Optimization -- RFO/linear search
 Second derivative matrix not updated -- first step.
 ITU=  0
     Eigenvalues ---    0.02044   0.02059   0.02068   0.02106   0.02112
     Eigenvalues ---    0.02116   0.02125   0.02132   0.02144   0.16000
     Eigenvalues ---    0.16000   0.16000   0.17671   0.22370   0.23491
     Eigenvalues ---    0.24608   0.25000   0.25000   0.25000   0.33832
     Eigenvalues ---    0.33872   0.33885   0.34287   0.34592   0.41763
     Eigenvalues ---    0.41824   0.45236   0.45615   0.45983   0.46373
 RFO step:  Lambda=-2.69386501D-02 EMin= 2.04433569D-02
 Linear search not attempted -- first point.
 Maximum step size (   0.300) exceeded in Quadratic search.
    -- Step size scaled by   0.861
 Iteration  1 RMS(Cart)=  0.02937781 RMS(Int)=  0.01137861
 Iteration  2 RMS(Cart)=  0.01087860 RMS(Int)=  0.00000343
 Iteration  3 RMS(Cart)=  0.00000061 RMS(Int)=  0.00000342
 ClnCor:  largest displacement from symmetrization is 1.24D-08 for atom     8.
 Variable       Old X    -DE/DX   Delta X   Delta X   Delta X     New X
                                 (Linear)    (Quad)   (Total)
    R1        2.64410  -0.00762   0.00000  -0.01364  -0.01364   2.63046
    R2        2.65341  -0.00657   0.00000  -0.01162  -0.01162   2.64179
    R3        3.23848   0.02946   0.00000   0.06856   0.06856   3.30704
    R4        2.63888  -0.01163   0.00000  -0.02082  -0.02081   2.61807
    R5        2.07525  -0.00285   0.00000  -0.00672  -0.00672   2.06854
    R6        2.64239  -0.00932   0.00000  -0.01676  -0.01676   2.62563
    R7        3.66289   0.06710   0.00000   0.28361   0.28361   3.94650
    R8        2.63453  -0.00643   0.00000  -0.01112  -0.01112   2.62341
    R9        2.07546  -0.00337   0.00000  -0.00794  -0.00794   2.06752
   R10        2.65028  -0.00836   0.00000  -0.01465  -0.01466   2.63562
   R11        2.07614  -0.00591   0.00000  -0.01392  -0.01392   2.06222
   R12        3.23342   0.02100   0.00000   0.04848   0.04848   3.28190
    A1        2.09554  -0.00118   0.00000  -0.00373  -0.00373   2.09181
    A2        2.08635   0.00173   0.00000   0.00541   0.00541   2.09176
    A3        2.10129  -0.00055   0.00000  -0.00168  -0.00168   2.09962
    A4        2.09516   0.00350   0.00000   0.01091   0.01092   2.10608
    A5        2.10223  -0.00388   0.00000  -0.01528  -0.01529   2.08694
    A6        2.08580   0.00038   0.00000   0.00437   0.00436   2.09016
    A7        2.09007  -0.00257   0.00000  -0.00938  -0.00938   2.08069
    A8        2.10113   0.00204   0.00000   0.00703   0.00702   2.10816
    A9        2.09198   0.00053   0.00000   0.00236   0.00235   2.09434
   A10        2.10568   0.00163   0.00000   0.00505   0.00504   2.11073
   A11        2.08222  -0.00049   0.00000  -0.00103  -0.00103   2.08119
   A12        2.09528  -0.00114   0.00000  -0.00401  -0.00401   2.09127
   A13        2.08915   0.00007   0.00000   0.00084   0.00083   2.08999
   A14        2.10795   0.00219   0.00000   0.00984   0.00985   2.11780
   A15        2.08608  -0.00227   0.00000  -0.01069  -0.01068   2.07540
   A16        2.09077  -0.00144   0.00000  -0.00369  -0.00370   2.08707
   A17        2.11782   0.00046   0.00000   0.00105   0.00105   2.11887
   A18        2.07459   0.00098   0.00000   0.00264   0.00265   2.07724
    D1        0.00000   0.00000   0.00000   0.00000   0.00000   0.00000
    D2        3.14159   0.00000   0.00000   0.00000   0.00000   3.14159
    D3        3.14159  -0.00000   0.00000  -0.00000   0.00000   3.14159
    D4        0.00000   0.00000   0.00000   0.00000   0.00000   0.00000
    D5        0.00000  -0.00000   0.00000  -0.00000   0.00000   0.00000
    D6        3.14159  -0.00000   0.00000  -0.00000   0.00000   3.14159
    D7        3.14159  -0.00000   0.00000  -0.00000   0.00000   3.14159
    D8        0.00000  -0.00000   0.00000  -0.00000   0.00000   0.00000
    D9        0.00000   0.00000   0.00000   0.00000   0.00000   0.00000
   D10        3.14159   0.00000   0.00000   0.00000   0.00000   3.14159
   D11        3.14159   0.00000   0.00000   0.00000   0.00000   3.14159
   D12        0.00000   0.00000   0.00000   0.00000   0.00000   0.00000
   D13        0.00000  -0.00000   0.00000  -0.00000   0.00000   0.00000
   D14        3.14159  -0.00000   0.00000  -0.00000   0.00000   3.14159
   D15        3.14159  -0.00000   0.00000  -0.00000   0.00000   3.14159
   D16        0.00000  -0.00000   0.00000  -0.00000   0.00000   0.00000
   D17        0.00000   0.00000   0.00000   0.00000   0.00000   0.00000
   D18        3.14159   0.00000   0.00000   0.00000   0.00000   3.14159
   D19        3.14159  -0.00000   0.00000  -0.00000   0.00000   3.14159
   D20        0.00000   0.00000   0.00000   0.00000   0.00000   0.00000
   D21        0.00000   0.00000   0.00000   0.00000   0.00000   0.00000
   D22        3.14159   0.00000   0.00000   0.00000   0.00000   3.14159
   D23        3.14159  -0.00000   0.00000   0.00000   0.00000   3.14159
   D24        0.00000   0.00000   0.00000   0.00000   0.00000   0.00000
         Item               Value     Threshold  Converged?
 Maximum Force            0.067097     0.000450     NO 
 RMS     Force            0.010853     0.000300     NO 
 Maximum Displacement     0.231537     0.001800     NO 
 RMS     Displacement     0.039532     0.001200     NO 
 Predicted change in Energy=-1.442062D-02
 GradGradGradGradGradGradGradGradGradGradGradGradGradGradGradGradGradGrad

                          Input orientation:                          
 ---------------------------------------------------------------------
 Center     Atomic      Atomic             Coordinates (Angstroms)
 Number     Number       Type             X           Y           Z
 ---------------------------------------------------------------------
      1          6           0       -3.174546    0.154711    0.000000
      2          6           0       -1.984284    0.876437    0.000000
      3          6           0       -0.762157    0.223899    0.000000
      4          6           0       -0.735113   -1.165262    0.000000
      5          6           0       -1.911759   -1.901967    0.000000
      6          6           0       -3.140904   -1.242859    0.000000
      7         17           0       -4.601028   -2.183169    0.000000
      8         17           0       -4.706319    1.001003    0.000000
      9          1           0       -2.015951    1.970601    0.000000
     10         17           0        1.025842    1.303003    0.000000
     11          1           0        0.229753   -1.681062    0.000000
     12          1           0       -1.898234   -2.993163    0.000000
 ---------------------------------------------------------------------
                    Distance matrix (angstroms):
                    1          2          3          4          5
     1  C    0.000000
     2  C    1.391981   0.000000
     3  C    2.413380   1.385424   0.000000
     4  C    2.773655   2.393525   1.389424   0.000000
     5  C    2.413412   2.779350   2.416793   1.388247   0.000000
     6  C    1.397975   2.414371   2.794605   2.407042   1.394712
     7  Cl   2.738711   4.025983   4.531104   3.997679   2.703931
     8  Cl   1.750011   2.724884   4.019988   4.523624   4.029491
     9  H    2.154019   1.094622   2.150109   3.387356   3.873970
    10  Cl   4.354519   3.040200   2.088399   3.032045   4.347567
    11  H    3.867727   3.382715   2.147734   1.094083   2.152875
    12  H    3.396776   3.870557   3.411767   2.166581   1.091280
                    6          7          8          9         10
     6  C    0.000000
     7  Cl   1.736705   0.000000
     8  Cl   2.735953   3.185913   0.000000
     9  H    3.404680   4.892487   2.859755   0.000000
    10  Cl   4.882949   6.619295   5.740111   3.114193   0.000000
    11  H    3.399022   4.856805   5.617675   4.286938   3.088431
    12  H    2.146578   2.821558   4.882490   4.965160   5.196852
                   11         12
    11  H    0.000000
    12  H    2.499987   0.000000
 Stoichiometry    C6H3Cl3(1-,2)
 Framework group  CS[SG(C6H3Cl3)]
 Deg. of freedom    21
 Full point group                 CS      NOp   2
 Largest Abelian subgroup         CS      NOp   2
 Largest concise Abelian subgroup C1      NOp   1
                         Standard orientation:                         
 ---------------------------------------------------------------------
 Center     Atomic      Atomic             Coordinates (Angstroms)
 Number     Number       Type             X           Y           Z
 ---------------------------------------------------------------------
      1          6           0        0.000000    0.869350    0.000000
      2          6           0        1.155355    0.092970    0.000000
      3          6           0        1.077277   -1.290251    0.000000
      4          6           0       -0.171700   -1.898985    0.000000
      5          6           0       -1.334919   -1.141258    0.000000
      6          6           0       -1.253832    0.251095    0.000000
      7         17           0       -2.720991    1.180390    0.000000
      8         17           0        0.123647    2.614988    0.000000
      9          1           0        2.134745    0.581841    0.000000
     10         17           0        2.808245   -2.458651    0.000000
     11          1           0       -0.233908   -2.991297    0.000000
     12          1           0       -2.319246   -1.612420    0.000000
 ---------------------------------------------------------------------
 Rotational constants (GHZ):           1.8442268           0.5366920           0.4157142
 Standard basis: 6-311++G(d,p) (5D, 7F)
 There are   189 symmetry adapted cartesian basis functions of A'  symmetry.
 There are    63 symmetry adapted cartesian basis functions of A"  symmetry.
 There are   180 symmetry adapted basis functions of A'  symmetry.
 There are    63 symmetry adapted basis functions of A"  symmetry.
   243 basis functions,   402 primitive gaussians,   252 cartesian basis functions
    46 alpha electrons       45 beta electrons
       nuclear repulsion energy       610.9233084783 Hartrees.
 NAtoms=   12 NActive=   12 NUniq=   12 SFac= 1.00D+00 NAtFMM=   60 NAOKFM=F Big=F
 Integral buffers will be    131072 words long.
 Raffenetti 2 integral format.
 Two-electron integral symmetry is turned on.
 One-electron integrals computed using PRISM.
 NBasis=   243 RedAO= T EigKep=  1.86D-06  NBF=   180    63
 NBsUse=   242 1.00D-06 EigRej=  9.49D-07 NBFU=   179    63
 Initial guess from the checkpoint file:  "frequency_chks/124ClBzAnionRadical_Freq.chk"
 B after Tr=    -0.000000    0.000000    0.000000
         Rot=    0.999938    0.000000   -0.000000    0.011160 Ang=   1.28 deg.
 Initial guess orbital symmetries:
 Alpha Orbitals:
       Occupied  (A') (A') (A') (A') (A') (A') (A') (A') (A') (A')
                 (A') (A') (A') (A") (A') (A') (A") (A') (A') (A")
                 (A') (A') (A') (A') (A') (A') (A') (A') (A') (A')
                 (A') (A') (A') (A") (A') (A') (A") (A') (A") (A')
                 (A') (A") (A') (A") (A") (A')
       Virtual   (A') (A') (A') (A") (A') (A") (A') (A") (A') (A")
                 (A') (A') (A") (A') (A') (A') (A") (A') (A") (A')
                 (A') (A") (A') (A') (A") (A') (A') (A') (A") (A')
                 (A") (A') (A') (A") (A') (A') (A') (A') (A') (A')
                 (A') (A') (A') (A') (A') (A') (A') (A') (A') (A')
                 (A") (A') (A') (A') (A') (A") (A') (A') (A") (A')
                 (A') (A") (A') (A') (A") (A") (A') (A") (A") (A')
                 (A') (A") (A') (A') (A') (A') (A") (A') (A') (A')
                 (A') (A') (A") (A') (A") (A') (A') (A') (A") (A')
                 (A') (A') (A") (A') (A") (A') (A") (A') (A') (A')
                 (A") (A') (A") (A') (A') (A') (A") (A') (A') (A")
                 (A") (A') (A') (A') (A') (A") (A') (A') (A") (A')
                 (A") (A') (A') (A') (A") (A") (A") (A') (A') (A')
                 (A") (A') (A') (A') (A") (A') (A") (A') (A") (A")
                 (A") (A') (A') (A') (A') (A') (A') (A') (A') (A')
                 (A') (A") (A') (A') (A') (A') (A") (A") (A') (A")
                 (A") (A') (A") (A') (A') (A') (A') (A') (A') (A')
                 (A') (A') (A') (A') (A') (A') (A') (A') (A') (A')
                 (A') (A') (A') (A') (A") (A") (A") (A') (A') (A')
                 (A') (A') (A') (A') (A') (A')
 Beta  Orbitals:
       Occupied  (A') (A') (A') (A') (A') (A') (A') (A') (A') (A')
                 (A') (A') (A') (A") (A') (A') (A") (A') (A') (A")
                 (A') (A') (A') (A') (A') (A') (A') (A') (A') (A')
                 (A') (A') (A') (A") (A') (A") (A') (A') (A") (A')
                 (A') (A") (A") (A') (A")
       Virtual   (A') (A') (A') (A") (A') (A") (A') (A') (A') (A")
                 (A") (A') (A') (A") (A') (A') (A") (A') (A') (A")
                 (A') (A') (A") (A') (A") (A') (A') (A') (A') (A")
                 (A') (A") (A') (A') (A') (A") (A') (A') (A') (A')
                 (A') (A') (A') (A') (A') (A') (A') (A') (A') (A')
                 (A') (A") (A') (A') (A') (A') (A") (A') (A') (A")
                 (A') (A') (A") (A') (A') (A") (A") (A") (A') (A")
                 (A') (A') (A") (A') (A') (A') (A') (A') (A") (A')
                 (A') (A') (A') (A") (A') (A") (A') (A') (A') (A")
                 (A') (A') (A') (A") (A') (A") (A') (A") (A') (A')
                 (A') (A") (A') (A") (A') (A') (A') (A") (A') (A')
                 (A") (A') (A") (A') (A') (A') (A") (A') (A') (A")
                 (A') (A") (A') (A') (A') (A") (A") (A") (A') (A')
                 (A') (A") (A') (A') (A') (A") (A') (A") (A') (A")
                 (A") (A") (A') (A') (A') (A') (A') (A') (A') (A')
                 (A') (A') (A") (A') (A') (A') (A') (A") (A") (A')
                 (A") (A") (A') (A") (A') (A') (A') (A') (A') (A')
                 (A') (A') (A') (A') (A') (A') (A') (A') (A') (A')
                 (A') (A') (A') (A') (A') (A") (A") (A") (A') (A')
                 (A') (A') (A') (A') (A') (A') (A')
 Initial guess <Sx>= 0.0000 <Sy>= 0.0000 <Sz>= 0.5000 <S**2>= 0.7556 S= 0.5028
 ExpMin= 3.60D-02 ExpMax= 1.06D+05 ExpMxC= 3.62D+03 IAcc=3 IRadAn=         5 AccDes= 0.00D+00
 Harris functional with IExCor= 1009 and IRadAn=       5 diagonalized for initial guess.
 HarFok:  IExCor= 1009 AccDes= 0.00D+00 IRadAn=         5 IDoV= 1 UseB2=F ITyADJ=14
 ICtDFT=  3500011 ScaDFX=  1.000000  1.000000  1.000000  1.000000
 FoFCou: FMM=F IPFlag=           0 FMFlag=      100000 FMFlg1=           0
         NFxFlg=           0 DoJE=T BraDBF=F KetDBF=T FulRan=T
         wScrn=  0.000000 ICntrl=       500 IOpCl=  0 I1Cent=   200000004 NGrid=           0
         NMat0=    1 NMatS0=      1 NMatT0=    0 NMatD0=    1 NMtDS0=    0 NMtDT0=    0
 Petite list used in FoFCou.
 Keep R1 and R2 ints in memory in symmetry-blocked form, NReq=695666862.
 Requested convergence on RMS density matrix=1.00D-08 within 128 cycles.
 Requested convergence on MAX density matrix=1.00D-06.
 Requested convergence on             energy=1.00D-06.
 No special actions if energy rises.
 SCF Done:  E(UM062X) =  -1610.98452510     A.U. after   20 cycles
            NFock= 20  Conv=0.80D-08     -V/T= 2.0022
 <Sx>= 0.0000 <Sy>= 0.0000 <Sz>= 0.5000 <S**2>= 0.7572 S= 0.5036
 <L.S>=  0.00000000000    
 Annihilation of the first spin contaminant:
 S**2 before annihilation     0.7572,   after     0.7500
 Calling FoFJK, ICntrl=      2127 FMM=F ISym2X=1 I1Cent= 0 IOpClX= 1 NMat=1 NMatS=1 NMatT=0.
 ***** Axes restored to original set *****
 -------------------------------------------------------------------
 Center     Atomic                   Forces (Hartrees/Bohr)
 Number     Number              X              Y              Z
 -------------------------------------------------------------------
      1        6           0.007427245   -0.006296340   -0.000000000
      2        6           0.001206120    0.002770544   -0.000000000
      3        6          -0.039812122   -0.023717176   -0.000000000
      4        6           0.003108290    0.001415891   -0.000000000
      5        6          -0.001531568   -0.003898569   -0.000000000
      6        6           0.006426000    0.005544373   -0.000000000
      7       17          -0.005850586   -0.003982159   -0.000000000
      8       17          -0.006055260    0.003490607   -0.000000000
      9        1          -0.001325530   -0.002594037   -0.000000000
     10       17           0.039882908    0.023764107   -0.000000000
     11        1          -0.002463087    0.000654570   -0.000000000
     12        1          -0.001012411    0.002848187   -0.000000000
 -------------------------------------------------------------------
 Cartesian Forces:  Max     0.039882908 RMS     0.011342064

 GradGradGradGradGradGradGradGradGradGradGradGradGradGradGradGradGradGrad
 Berny optimization.
 Using GEDIIS/GDIIS optimizer.
 FormGI is forming the generalized inverse of G from B-inverse, IUseBI=4.
 Internal  Forces:  Max     0.046425333 RMS     0.006527678
 Search for a local minimum.
 Step number   2 out of a maximum of   64
 All quantities printed in internal units (Hartrees-Bohrs-Radians)
 Mixed Optimization -- RFO/linear search
 Update second derivatives using D2CorX and points    1    2
 DE= -1.89D-02 DEPred=-1.44D-02 R= 1.31D+00
 TightC=F SS=  1.41D+00  RLast= 3.00D-01 DXNew= 5.0454D-01 9.0000D-01
 Trust test= 1.31D+00 RLast= 3.00D-01 DXMaxT set to 5.05D-01
 ITU=  1  0
 Use linear search instead of GDIIS.
     Eigenvalues ---    0.02044   0.02059   0.02068   0.02106   0.02112
     Eigenvalues ---    0.02116   0.02125   0.02132   0.02144   0.07793
     Eigenvalues ---    0.16000   0.16005   0.16012   0.22390   0.23659
     Eigenvalues ---    0.24606   0.24999   0.25000   0.25028   0.33783
     Eigenvalues ---    0.33853   0.33879   0.34496   0.36753   0.41748
     Eigenvalues ---    0.41889   0.45236   0.45974   0.46059   0.49585
 RFO step:  Lambda=-3.73829769D-03 EMin= 2.04435242D-02
 Quartic linear search produced a step of  1.10861.
 Iteration  1 RMS(Cart)=  0.02943386 RMS(Int)=  0.03083972
 Iteration  2 RMS(Cart)=  0.02605180 RMS(Int)=  0.00362309
 Iteration  3 RMS(Cart)=  0.00346883 RMS(Int)=  0.00000732
 Iteration  4 RMS(Cart)=  0.00000004 RMS(Int)=  0.00000732
 ClnCor:  largest displacement from symmetrization is 1.94D-08 for atom     7.
 Variable       Old X    -DE/DX   Delta X   Delta X   Delta X     New X
                                 (Linear)    (Quad)   (Total)
    R1        2.63046  -0.00018  -0.01512   0.01596   0.00085   2.63131
    R2        2.64179  -0.00249  -0.01289   0.00249  -0.01039   2.63140
    R3        3.30704   0.00699   0.07601  -0.04711   0.02890   3.33594
    R4        2.61807  -0.00034  -0.02307   0.02470   0.00164   2.61971
    R5        2.06854  -0.00255  -0.00745  -0.00687  -0.01431   2.05422
    R6        2.62563  -0.00012  -0.01858   0.02090   0.00232   2.62795
    R7        3.94650   0.04643   0.31441   0.11223   0.42664   4.37314
    R8        2.62341   0.00190  -0.01233   0.02259   0.01025   2.63366
    R9        2.06752  -0.00248  -0.00881  -0.00482  -0.01362   2.05389
   R10        2.63562  -0.00178  -0.01625   0.00989  -0.00637   2.62926
   R11        2.06222  -0.00286  -0.01543   0.00065  -0.01478   2.04744
   R12        3.28190   0.00707   0.05375  -0.02068   0.03307   3.31497
    A1        2.09181   0.00140  -0.00413   0.01541   0.01129   2.10310
    A2        2.09176  -0.00091   0.00599  -0.01433  -0.00834   2.08341
    A3        2.09962  -0.00049  -0.00186  -0.00108  -0.00295   2.09667
    A4        2.10608  -0.00032   0.01211  -0.01840  -0.00627   2.09982
    A5        2.08694  -0.00129  -0.01695   0.00587  -0.01109   2.07585
    A6        2.09016   0.00161   0.00483   0.01253   0.01736   2.10751
    A7        2.08069  -0.00095  -0.01039   0.00675  -0.00364   2.07705
    A8        2.10816   0.00099   0.00778  -0.00235   0.00543   2.11359
    A9        2.09434  -0.00004   0.00261  -0.00440  -0.00179   2.09255
   A10        2.11073   0.00043   0.00559  -0.00131   0.00427   2.11499
   A11        2.08119   0.00039  -0.00114   0.00607   0.00493   2.08612
   A12        2.09127  -0.00082  -0.00444  -0.00476  -0.00920   2.08207
   A13        2.08999  -0.00046   0.00092  -0.00528  -0.00438   2.08561
   A14        2.11780   0.00123   0.01092  -0.00038   0.01055   2.12834
   A15        2.07540  -0.00078  -0.01184   0.00566  -0.00617   2.06924
   A16        2.08707  -0.00011  -0.00410   0.00284  -0.00127   2.08581
   A17        2.11887   0.00035   0.00116   0.00215   0.00332   2.12219
   A18        2.07724  -0.00024   0.00293  -0.00499  -0.00205   2.07519
    D1        0.00000   0.00000   0.00000   0.00000   0.00000   0.00000
    D2        3.14159  -0.00000   0.00000  -0.00000   0.00000   3.14159
    D3        3.14159   0.00000   0.00000   0.00000   0.00000   3.14159
    D4        0.00000   0.00000   0.00000   0.00000   0.00000   0.00000
    D5        0.00000  -0.00000   0.00000  -0.00000   0.00000   0.00000
    D6        3.14159  -0.00000   0.00000   0.00000   0.00000   3.14159
    D7        3.14159  -0.00000   0.00000  -0.00000   0.00000   3.14159
    D8        0.00000  -0.00000   0.00000  -0.00000   0.00000   0.00000
    D9        0.00000  -0.00000   0.00000  -0.00000   0.00000   0.00000
   D10        3.14159  -0.00000   0.00000  -0.00000   0.00000   3.14159
   D11        3.14159   0.00000   0.00000   0.00000   0.00000   3.14159
   D12        0.00000   0.00000   0.00000   0.00000   0.00000   0.00000
   D13        0.00000  -0.00000   0.00000  -0.00000   0.00000   0.00000
   D14        3.14159  -0.00000   0.00000  -0.00000   0.00000   3.14159
   D15        3.14159  -0.00000   0.00000  -0.00000   0.00000   3.14159
   D16        0.00000  -0.00000   0.00000  -0.00000   0.00000   0.00000
   D17        0.00000   0.00000   0.00000   0.00000   0.00000   0.00000
   D18        3.14159   0.00000   0.00000  -0.00000   0.00000   3.14159
   D19        3.14159   0.00000   0.00000   0.00000   0.00000   3.14159
   D20        0.00000   0.00000   0.00000  -0.00000   0.00000   0.00000
   D21        0.00000   0.00000   0.00000   0.00000   0.00000   0.00000
   D22        3.14159  -0.00000   0.00000  -0.00000   0.00000   3.14159
   D23        3.14159   0.00000   0.00000   0.00000   0.00000   3.14159
   D24        0.00000   0.00000   0.00000  -0.00000   0.00000   0.00000
         Item               Value     Threshold  Converged?
 Maximum Force            0.046425     0.000450     NO 
 RMS     Force            0.006528     0.000300     NO 
 Maximum Displacement     0.356466     0.001800     NO 
 RMS     Displacement     0.058407     0.001200     NO 
 Predicted change in Energy=-1.324882D-02
 GradGradGradGradGradGradGradGradGradGradGradGradGradGradGradGradGradGrad

                          Input orientation:                          
 ---------------------------------------------------------------------
 Center     Atomic      Atomic             Coordinates (Angstroms)
 Number     Number       Type             X           Y           Z
 ---------------------------------------------------------------------
      1          6           0       -3.180442    0.139517    0.000000
      2          6           0       -1.995399    0.870637    0.000000
      3          6           0       -0.771566    0.219461    0.000000
      4          6           0       -0.747549   -1.170982    0.000000
      5          6           0       -1.927256   -1.913011    0.000000
      6          6           0       -3.151911   -1.252666    0.000000
      7         17           0       -4.626993   -2.202069    0.000000
      8         17           0       -4.725062    0.994177    0.000000
      9          1           0       -2.047272    1.956446    0.000000
     10         17           0        1.214476    1.407318    0.000000
     11          1           0        0.207285   -1.690199    0.000000
     12          1           0       -1.923010   -2.996460    0.000000
 ---------------------------------------------------------------------
                    Distance matrix (angstroms):
                    1          2          3          4          5
     1  C    0.000000
     2  C    1.392431   0.000000
     3  C    2.410202   1.386290   0.000000
     4  C    2.763399   2.392768   1.390650   0.000000
     5  C    2.404858   2.784482   2.425501   1.393670   0.000000
     6  C    1.392474   2.417837   2.798785   2.405750   1.391343
     7  Cl   2.752368   4.045591   4.552815   4.014129   2.715167
     8  Cl   1.765303   2.732457   4.028687   4.528634   4.034781
     9  H    2.141333   1.087047   2.155121   3.386752   3.871318
    10  Cl   4.574126   3.254432   2.314167   3.239934   4.571112
    11  H    3.850266   3.377825   2.145915   1.086873   2.146138
    12  H    3.378681   3.867774   3.415841   2.171193   1.083457
                    6          7          8          9         10
     6  C    0.000000
     7  Cl   1.754204   0.000000
     8  Cl   2.742828   3.197750   0.000000
     9  H    3.393910   4.893691   2.845439   0.000000
    10  Cl   5.112812   6.866617   5.953890   3.307649   0.000000
    11  H    3.387570   4.861301   5.615507   4.287313   3.257154
    12  H    2.133311   2.818259   4.876133   4.954465   5.407132
                   11         12
    11  H    0.000000
    12  H    2.498894   0.000000
 Stoichiometry    C6H3Cl3(1-,2)
 Framework group  CS[SG(C6H3Cl3)]
 Deg. of freedom    21
 Full point group                 CS      NOp   2
 Largest Abelian subgroup         CS      NOp   2
 Largest concise Abelian subgroup C1      NOp   1
                         Standard orientation:                         
 ---------------------------------------------------------------------
 Center     Atomic      Atomic             Coordinates (Angstroms)
 Number     Number       Type             X           Y           Z
 ---------------------------------------------------------------------
      1          6           0        0.000000    0.884284    0.000000
      2          6           0        1.129879    0.070505    0.000000
      3          6           0        0.998163   -1.309513    0.000000
      4          6           0       -0.276624   -1.865235    0.000000
      5          6           0       -1.414529   -1.060568    0.000000
      6          6           0       -1.274661    0.323727    0.000000
      7         17           0       -2.717407    1.321582    0.000000
      8         17           0        0.196530    2.638614    0.000000
      9          1           0        2.112664    0.535055    0.000000
     10         17           0        2.857176   -2.687714    0.000000
     11          1           0       -0.389704   -2.946210    0.000000
     12          1           0       -2.413409   -1.480233    0.000000
 ---------------------------------------------------------------------
 Rotational constants (GHZ):           1.8367261           0.5019276           0.3942027
 Standard basis: 6-311++G(d,p) (5D, 7F)
 There are   189 symmetry adapted cartesian basis functions of A'  symmetry.
 There are    63 symmetry adapted cartesian basis functions of A"  symmetry.
 There are   180 symmetry adapted basis functions of A'  symmetry.
 There are    63 symmetry adapted basis functions of A"  symmetry.
   243 basis functions,   402 primitive gaussians,   252 cartesian basis functions
    46 alpha electrons       45 beta electrons
       nuclear repulsion energy       601.0707454825 Hartrees.
 NAtoms=   12 NActive=   12 NUniq=   12 SFac= 1.00D+00 NAtFMM=   60 NAOKFM=F Big=F
 Integral buffers will be    131072 words long.
 Raffenetti 2 integral format.
 Two-electron integral symmetry is turned on.
 One-electron integrals computed using PRISM.
 NBasis=   243 RedAO= T EigKep=  1.03D-06  NBF=   180    63
 NBsUse=   243 1.00D-06 EigRej= -1.00D+00 NBFU=   180    63
 Initial guess from the checkpoint file:  "frequency_chks/124ClBzAnionRadical_Freq.chk"
 B after Tr=    -0.000000   -0.000000    0.000000
         Rot=    0.999820    0.000000    0.000000    0.018969 Ang=   2.17 deg.
 Initial guess orbital symmetries:
 Alpha Orbitals:
       Occupied  (A') (A') (A') (A') (A') (A') (A') (A') (A') (A')
                 (A') (A') (A') (A") (A') (A') (A") (A') (A') (A")
                 (A') (A') (A') (A') (A') (A') (A') (A') (A') (A')
                 (A') (A') (A') (A") (A') (A') (A") (A') (A") (A')
                 (A') (A") (A") (A') (A") (A')
       Virtual   (A') (A') (A') (A') (A") (A') (A") (A") (A') (A')
                 (A") (A') (A') (A") (A') (A') (A") (A') (A') (A")
                 (A') (A") (A') (A') (A") (A') (A') (A') (A") (A')
                 (A") (A') (A') (A') (A") (A') (A') (A') (A') (A')
                 (A') (A') (A') (A') (A') (A') (A') (A') (A') (A')
                 (A") (A') (A') (A') (A') (A") (A') (A') (A") (A')
                 (A') (A") (A') (A') (A") (A") (A") (A') (A") (A')
                 (A") (A') (A') (A') (A') (A') (A') (A") (A') (A')
                 (A') (A') (A') (A") (A") (A') (A') (A') (A") (A')
                 (A') (A') (A') (A') (A") (A") (A") (A') (A') (A")
                 (A') (A') (A") (A') (A") (A') (A') (A') (A") (A')
                 (A") (A') (A') (A') (A') (A') (A") (A') (A") (A')
                 (A") (A') (A') (A') (A") (A') (A") (A") (A') (A')
                 (A") (A') (A') (A') (A") (A') (A") (A') (A") (A")
                 (A") (A') (A') (A') (A') (A') (A') (A') (A') (A')
                 (A") (A') (A') (A') (A') (A') (A") (A") (A') (A")
                 (A") (A') (A") (A') (A') (A') (A') (A') (A') (A')
                 (A') (A') (A') (A') (A') (A') (A') (A') (A') (A')
                 (A') (A') (A') (A') (A") (A") (A") (A') (A') (A')
                 (A') (A') (A') (A') (A') (A') (A')
 Beta  Orbitals:
       Occupied  (A') (A') (A') (A') (A') (A') (A') (A') (A') (A')
                 (A') (A') (A') (A") (A') (A') (A") (A') (A") (A')
                 (A') (A') (A') (A') (A') (A') (A') (A') (A') (A')
                 (A') (A') (A') (A") (A') (A") (A') (A') (A") (A')
                 (A') (A") (A") (A') (A")
       Virtual   (A') (A') (A') (A') (A") (A') (A") (A') (A') (A")
                 (A') (A") (A') (A") (A') (A') (A') (A") (A') (A')
                 (A') (A") (A") (A') (A') (A") (A') (A') (A') (A")
                 (A') (A") (A') (A') (A') (A') (A") (A') (A') (A')
                 (A') (A') (A') (A') (A') (A') (A') (A') (A') (A')
                 (A') (A") (A') (A') (A') (A') (A") (A') (A') (A")
                 (A') (A') (A") (A') (A') (A") (A") (A") (A') (A")
                 (A') (A') (A") (A') (A') (A') (A') (A') (A") (A')
                 (A') (A') (A') (A') (A") (A") (A') (A') (A') (A")
                 (A') (A') (A') (A') (A') (A") (A") (A") (A') (A')
                 (A") (A') (A') (A") (A') (A') (A") (A') (A') (A")
                 (A') (A") (A') (A') (A') (A') (A') (A") (A') (A")
                 (A') (A") (A') (A') (A') (A") (A') (A") (A") (A')
                 (A') (A") (A') (A') (A') (A") (A') (A") (A') (A")
                 (A") (A") (A') (A') (A') (A') (A') (A') (A') (A')
                 (A') (A") (A') (A') (A') (A') (A') (A") (A") (A')
                 (A") (A") (A') (A") (A') (A') (A') (A') (A') (A')
                 (A') (A') (A') (A') (A') (A') (A') (A') (A') (A')
                 (A') (A') (A') (A') (A') (A") (A") (A") (A') (A')
                 (A') (A') (A') (A') (A') (A') (A') (A')
 Initial guess <Sx>= 0.0000 <Sy>= 0.0000 <Sz>= 0.5000 <S**2>= 0.7578 S= 0.5039
 ExpMin= 3.60D-02 ExpMax= 1.06D+05 ExpMxC= 3.62D+03 IAcc=3 IRadAn=         5 AccDes= 0.00D+00
 Harris functional with IExCor= 1009 and IRadAn=       5 diagonalized for initial guess.
 HarFok:  IExCor= 1009 AccDes= 0.00D+00 IRadAn=         5 IDoV= 1 UseB2=F ITyADJ=14
 ICtDFT=  3500011 ScaDFX=  1.000000  1.000000  1.000000  1.000000
 FoFCou: FMM=F IPFlag=           0 FMFlag=      100000 FMFlg1=           0
         NFxFlg=           0 DoJE=T BraDBF=F KetDBF=T FulRan=T
         wScrn=  0.000000 ICntrl=       500 IOpCl=  0 I1Cent=   200000004 NGrid=           0
         NMat0=    1 NMatS0=      1 NMatT0=    0 NMatD0=    1 NMtDS0=    0 NMtDT0=    0
 Petite list used in FoFCou.
 Keep R1 and R2 ints in memory in symmetry-blocked form, NReq=695666862.
 Requested convergence on RMS density matrix=1.00D-08 within 128 cycles.
 Requested convergence on MAX density matrix=1.00D-06.
 Requested convergence on             energy=1.00D-06.
 No special actions if energy rises.
 SCF Done:  E(UM062X) =  -1610.99779898     A.U. after   25 cycles
            NFock= 25  Conv=0.86D-08     -V/T= 2.0023
 <Sx>= 0.0000 <Sy>= 0.0000 <Sz>= 0.5000 <S**2>= 0.7597 S= 0.5049
 <L.S>=  0.00000000000    
 Annihilation of the first spin contaminant:
 S**2 before annihilation     0.7597,   after     0.7501
 Calling FoFJK, ICntrl=      2127 FMM=F ISym2X=1 I1Cent= 0 IOpClX= 1 NMat=1 NMatS=1 NMatT=0.
 ***** Axes restored to original set *****
 -------------------------------------------------------------------
 Center     Atomic                   Forces (Hartrees/Bohr)
 Number     Number              X              Y              Z
 -------------------------------------------------------------------
      1        6          -0.003039660    0.000543052   -0.000000000
      2        6           0.001312889    0.001788899   -0.000000000
      3        6          -0.017559137   -0.011512375   -0.000000000
      4        6           0.001537992    0.000308621   -0.000000000
      5        6           0.000390421    0.002426563   -0.000000000
      6        6          -0.000812544   -0.000277153   -0.000000000
      7       17           0.001052840    0.000714601   -0.000000000
      8       17           0.002366154   -0.000861026   -0.000000000
[...]
    R7        4.79218   0.00000   0.00000   0.00021   0.00021   4.79240
    R8        2.63219  -0.00000   0.00000  -0.00001  -0.00001   2.63218
    R9        2.05162   0.00000   0.00000   0.00000   0.00000   2.05162
   R10        2.63106   0.00001   0.00000   0.00004   0.00004   2.63110
   R11        2.04989  -0.00000   0.00000   0.00001   0.00001   2.04990
   R12        3.30898  -0.00008   0.00000  -0.00044  -0.00044   3.30854
    A1        2.09868   0.00003   0.00000   0.00030   0.00030   2.09898
    A2        2.08083   0.00001   0.00000  -0.00003  -0.00003   2.08081
    A3        2.10367  -0.00004   0.00000  -0.00027  -0.00027   2.10340
    A4        2.08163  -0.00002   0.00000  -0.00021  -0.00021   2.08142
    A5        2.08528   0.00003   0.00000   0.00027   0.00027   2.08555
    A6        2.11628  -0.00001   0.00000  -0.00006  -0.00006   2.11621
    A7        2.11305   0.00002   0.00000   0.00013   0.00013   2.11318
    A8        2.11829  -0.00001   0.00000   0.00017   0.00017   2.11847
    A9        2.05184  -0.00001   0.00000  -0.00030  -0.00030   2.05154
   A10        2.09050  -0.00001   0.00000  -0.00007  -0.00007   2.09043
   A11        2.09541  -0.00001   0.00000  -0.00007  -0.00007   2.09533
   A12        2.09728   0.00002   0.00000   0.00014   0.00014   2.09742
   A13        2.09032   0.00001   0.00000   0.00010   0.00010   2.09042
   A14        2.12175  -0.00001   0.00000  -0.00009  -0.00009   2.12166
   A15        2.07112   0.00000   0.00000  -0.00001  -0.00001   2.07110
   A16        2.09219  -0.00003   0.00000  -0.00025  -0.00025   2.09194
   A17        2.11795   0.00001   0.00000   0.00011   0.00011   2.11806
   A18        2.07305   0.00002   0.00000   0.00014   0.00014   2.07319
    D1        0.00000  -0.00000   0.00000  -0.00000   0.00000   0.00000
    D2        3.14159  -0.00000   0.00000  -0.00000   0.00000   3.14159
    D3        3.14159   0.00000   0.00000  -0.00000   0.00000   3.14159
    D4        0.00000  -0.00000   0.00000  -0.00000   0.00000   0.00000
    D5        0.00000  -0.00000   0.00000   0.00000   0.00000   0.00000
    D6        3.14159  -0.00000   0.00000  -0.00000   0.00000   3.14159
    D7        3.14159   0.00000   0.00000   0.00000   0.00000   3.14159
    D8        0.00000   0.00000   0.00000  -0.00000   0.00000   0.00000
    D9        0.00000  -0.00000   0.00000  -0.00000   0.00000   0.00000
   D10        3.14159  -0.00000   0.00000   0.00000   0.00000   3.14159
   D11        3.14159   0.00000   0.00000  -0.00000   0.00000   3.14159
   D12        0.00000  -0.00000   0.00000   0.00000   0.00000   0.00000
   D13        0.00000   0.00000   0.00000   0.00000   0.00000   0.00000
   D14        3.14159  -0.00000   0.00000   0.00000   0.00000   3.14159
   D15        3.14159   0.00000   0.00000  -0.00000   0.00000   3.14159
   D16        0.00000   0.00000   0.00000  -0.00000   0.00000   0.00000
   D17        0.00000   0.00000   0.00000  -0.00000   0.00000   0.00000
   D18        3.14159   0.00000   0.00000  -0.00000   0.00000   3.14159
   D19        3.14159   0.00000   0.00000  -0.00000   0.00000   3.14159
   D20        0.00000   0.00000   0.00000  -0.00000   0.00000   0.00000
   D21        0.00000  -0.00000   0.00000   0.00000   0.00000   0.00000
   D22        3.14159  -0.00000   0.00000   0.00000   0.00000   3.14159
   D23        3.14159  -0.00000   0.00000   0.00000   0.00000   3.14159
   D24        0.00000   0.00000   0.00000   0.00000   0.00000   0.00000
         Item               Value     Threshold  Converged?
 Maximum Force            0.000099     0.000450     YES
 RMS     Force            0.000021     0.000300     YES
 Maximum Displacement     0.000745     0.001800     YES
 RMS     Displacement     0.000176     0.001200     YES
 Predicted change in Energy=-7.659888D-08
 Optimization completed.
    -- Stationary point found.
                           ----------------------------
                           !   Optimized Parameters   !
                           ! (Angstroms and Degrees)  !
 --------------------------                            --------------------------
 ! Name  Definition              Value          Derivative Info.                !
 --------------------------------------------------------------------------------
 ! R1    R(1,2)                  1.3948         -DE/DX =    0.0                 !
 ! R2    R(1,6)                  1.3931         -DE/DX =    0.0                 !
 ! R3    R(1,8)                  1.7543         -DE/DX =    0.0001              !
 ! R4    R(2,3)                  1.3811         -DE/DX =    0.0                 !
 ! R5    R(2,9)                  1.0855         -DE/DX =    0.0                 !
 ! R6    R(3,4)                  1.3846         -DE/DX =    0.0                 !
 ! R7    R(3,10)                 2.5359         -DE/DX =    0.0                 !
 ! R8    R(4,5)                  1.3929         -DE/DX =    0.0                 !
 ! R9    R(4,11)                 1.0857         -DE/DX =    0.0                 !
 ! R10   R(5,6)                  1.3923         -DE/DX =    0.0                 !
 ! R11   R(5,12)                 1.0848         -DE/DX =    0.0                 !
 ! R12   R(6,7)                  1.751          -DE/DX =   -0.0001              !
 ! A1    A(2,1,6)              120.2458         -DE/DX =    0.0                 !
 ! A2    A(2,1,8)              119.2228         -DE/DX =    0.0                 !
 ! A3    A(6,1,8)              120.5314         -DE/DX =    0.0                 !
 ! A4    A(1,2,3)              119.2685         -DE/DX =    0.0                 !
 ! A5    A(1,2,9)              119.4778         -DE/DX =    0.0                 !
 ! A6    A(3,2,9)              121.2537         -DE/DX =    0.0                 !
 ! A7    A(2,3,4)              121.0687         -DE/DX =    0.0                 !
 ! A8    A(2,3,10)             121.3694         -DE/DX =    0.0                 !
 ! A9    A(4,3,10)             117.5619         -DE/DX =    0.0                 !
 ! A10   A(3,4,5)              119.7769         -DE/DX =    0.0                 !
 ! A11   A(3,4,11)             120.0579         -DE/DX =    0.0                 !
 ! A12   A(5,4,11)             120.1652         -DE/DX =    0.0                 !
 ! A13   A(4,5,6)              119.7667         -DE/DX =    0.0                 !
 ! A14   A(4,5,12)             121.5671         -DE/DX =    0.0                 !
 ! A15   A(6,5,12)             118.6662         -DE/DX =    0.0                 !
 ! A16   A(1,6,5)              119.8734         -DE/DX =    0.0                 !
 ! A17   A(1,6,7)              121.3495         -DE/DX =    0.0                 !
 ! A18   A(5,6,7)              118.7771         -DE/DX =    0.0                 !
 ! D1    D(6,1,2,3)              0.0            -DE/DX =    0.0                 !
 ! D2    D(6,1,2,9)            180.0            -DE/DX =    0.0                 !
 ! D3    D(8,1,2,3)            180.0            -DE/DX =    0.0                 !
 ! D4    D(8,1,2,9)              0.0            -DE/DX =    0.0                 !
 ! D5    D(2,1,6,5)              0.0            -DE/DX =    0.0                 !
 ! D6    D(2,1,6,7)            180.0            -DE/DX =    0.0                 !
 ! D7    D(8,1,6,5)            180.0            -DE/DX =    0.0                 !
 ! D8    D(8,1,6,7)              0.0            -DE/DX =    0.0                 !
 ! D9    D(1,2,3,4)              0.0            -DE/DX =    0.0                 !
 ! D10   D(1,2,3,10)           180.0            -DE/DX =    0.0                 !
 ! D11   D(9,2,3,4)            180.0            -DE/DX =    0.0                 !
 ! D12   D(9,2,3,10)             0.0            -DE/DX =    0.0                 !
 ! D13   D(2,3,4,5)              0.0            -DE/DX =    0.0                 !
 ! D14   D(2,3,4,11)           180.0            -DE/DX =    0.0                 !
 ! D15   D(10,3,4,5)           180.0            -DE/DX =    0.0                 !
 ! D16   D(10,3,4,11)            0.0            -DE/DX =    0.0                 !
 ! D17   D(3,4,5,6)              0.0            -DE/DX =    0.0                 !
 ! D18   D(3,4,5,12)           180.0            -DE/DX =    0.0                 !
 ! D19   D(11,4,5,6)           180.0            -DE/DX =    0.0                 !
 ! D20   D(11,4,5,12)            0.0            -DE/DX =    0.0                 !
 ! D21   D(4,5,6,1)              0.0            -DE/DX =    0.0                 !
 ! D22   D(4,5,6,7)            180.0            -DE/DX =    0.0                 !
 ! D23   D(12,5,6,1)           180.0            -DE/DX =    0.0                 !
 ! D24   D(12,5,6,7)             0.0            -DE/DX =    0.0                 !
 --------------------------------------------------------------------------------
 GradGradGradGradGradGradGradGradGradGradGradGradGradGradGradGradGradGrad


 ----------------------------------------------------------------------

 Electric dipole moment (input orientation):
 (Debye = 10**-18 statcoulomb cm , SI units = C m)
                  (au)            (Debye)         (10**-30 SI)
   Tot        0.440363D+01      0.111929D+02      0.373356D+02
   x         -0.386947D+01     -0.983521D+01     -0.328067D+02
   y         -0.210219D+01     -0.534323D+01     -0.178231D+02
   z          0.000000D+00      0.000000D+00      0.000000D+00

 Dipole polarizability, Alpha (input orientation).
 (esu units = cm**3 , SI units = C**2 m**2 J**-1)
 Alpha(0;0):
               (au)            (10**-24 esu)      (10**-40 SI)
   iso        0.134918D+03      0.199927D+02      0.222449D+02
   aniso      0.127624D+03      0.189120D+02      0.210424D+02
   xx         0.199521D+03      0.295659D+02      0.328965D+02
   yx         0.329183D+02      0.487799D+01      0.542749D+01
   yy         0.137481D+03      0.203726D+02      0.226676D+02
   zx         0.000000D+00      0.000000D+00      0.000000D+00
   zy         0.000000D+00      0.000000D+00      0.000000D+00
   zz         0.677513D+02      0.100397D+02      0.111707D+02

 ----------------------------------------------------------------------

 Dipole orientation:
     6         -1.48656904          2.73630590          5.20109800
     6         -1.56100746          2.87332359          2.56984813
     6         -0.51212897          0.94266831          1.16145548
     6          0.60792020         -1.11898981          2.31958988
     6          0.68475221         -1.26041338          4.94685689
     6         -0.36535849          0.67251003          6.39030352
    17         -0.24155428          0.44462543          9.68910753
    17         -2.81959969          5.18999592          6.98790163
     1         -2.44048613          4.49216713          1.66785075
    17         -0.56365410          1.03750985         -3.62951319
     1          1.42300742         -2.61930895          1.18213211
     1          1.54828403         -2.84990377          5.91116672

 Electric dipole moment (dipole orientation):
 (Debye = 10**-18 statcoulomb cm , SI units = C m)
                  (au)            (Debye)         (10**-30 SI)
   Tot        0.440363D+01      0.111929D+02      0.373356D+02
   x          0.000000D+00      0.000000D+00      0.000000D+00
   y          0.000000D+00      0.000000D+00      0.000000D+00
   z          0.440363D+01      0.111929D+02      0.373356D+02

 Dipole polarizability, Alpha (dipole orientation).
 (esu units = cm**3 , SI units = C**2 m**2 J**-1)
 Alpha(0;0):
               (au)            (10**-24 esu)      (10**-40 SI)
   iso        0.134918D+03      0.199927D+02      0.222449D+02
   aniso      0.127624D+03      0.189120D+02      0.210424D+02
   xx         0.805703D+02      0.119393D+02      0.132842D+02
   yx        -0.235958D+02     -0.349653D+01     -0.389041D+01
   yy         0.111184D+03      0.164757D+02      0.183317D+02
   zx        -0.387097D+01     -0.573618D+00     -0.638236D+00
   zy         0.712523D+01      0.105585D+01      0.117479D+01
   zz         0.212999D+03      0.315632D+02      0.351188D+02

 ----------------------------------------------------------------------
 1\1\GINC-SH03-01N18\Freq\UM062X\6-311++G(d,p)\C6H3Cl3(1-,2)\JLAPIER\09
 -Dec-2025\0\\#N Geom=AllCheck Guess=TCheck SCRF=Check GenChk UM062X/6-
 311++G(d,p) Freq\\3-Chloro-Benzene Anion Radical (124)\\-1,2\C,-3.2051
 042278,0.1341074269,0.\C,-2.0209969321,0.871311266,0.\C,-0.811069307,0
 .205435742,0.\C,-0.7568828794,-1.1781106403,0.\C,-1.937871552,-1.91663
 98247,0.\C,-3.1647509041,-1.2584192751,0.\Cl,-4.633139299,-2.212343013
 8,0.\Cl,-4.7413550913,0.9811681501,0.\H,-2.0669794617,1.9558258172,0.\
 Cl,1.3894055083,1.465901574,0.\H,0.2033463975,-1.6847047079,0.\H,-1.92
 93022514,-3.0013625145,0.\\Version=ES64L-G16RevB.01\State=2-A'\HF=-161
 1.0008891\S2=0.762361\S2-1=0.\S2A=0.750098\RMSD=7.373e-09\RMSF=4.591e-
 05\ZeroPoint=0.0688429\Thermal=0.0779024\Dipole=-3.8694694,-2.1021895,
 0.\DipoleDeriv=0.873693,-0.5173808,0.,-0.4187047,0.3463965,0.,0.,0.,0.
 0161773,-0.4526128,-0.1598452,0.,-0.2594526,-0.1255205,0.,0.,0.,-0.115
 9645,1.3039622,0.8551444,0.,0.8774872,0.3370412,0.,0.,0.,-0.0784131,-0
 .3893027,-0.3189963,0.,-0.2116404,-0.0014804,0.,0.,0.,-0.1141019,0.026
 7859,-0.0730241,0.,-0.1857517,-0.0887997,0.,0.,0.,-0.1342805,0.512421,
 0.6220128,0.,0.516319,0.1991404,0.,0.,0.,-0.0461999,-0.6304131,-0.3834
 706,0.,-0.3879795,-0.3617569,0.,0.,0.,-0.0973591,-0.9088498,0.2654276,
 0.,0.4184068,-0.273056,0.,0.,0.,-0.1083221,0.0323647,-0.0074255,0.,0.0
 891827,-0.0260018,0.,0.,0.,0.1119689,-1.3613197,-0.3563779,0.,-0.39981
 06,-0.8598999,0.,0.,0.,-0.6791041,-0.0236797,0.1041867,0.,0.0135521,-0
 .0121887,0.,0.,0.,0.1139107,0.0169511,-0.0302513,0.,-0.0516084,-0.1338
 742,0.,0.,0.,0.1316884\Polar=199.5206604,32.9182768,137.4810134,0.,0.,
 67.7512901\Quadrupole=-25.0302747,9.646332,15.3839427,-18.7043143,0.,0
 .\PG=CS [SG(C6H3Cl3)]\NImag=0\\0.51970664,0.04964680,0.61468249,0.,0.,
 0.11979121,-0.23337434,-0.05453674,0.,0.60881886,-0.14563557,-0.181744
 67,0.,-0.03016009,0.73462748,0.,0.,-0.06594842,0.,0.,0.12890245,-0.063
 33064,-0.03753140,0.,-0.27185269,0.13576209,0.,0.40823545,0.03701199,0
 .07351900,0.,0.09686840,-0.16450904,0.,-0.14498895,0.55230934,0.,0.,0.
 01916849,0.,0.,-0.05459892,0.,0.,0.07410619,-0.01571671,-0.03634777,0.
 ,0.02811189,0.03723407,0.,-0.08985032,0.03866115,0.,0.69915972,-0.0271
 2465,-0.06219111,0.,0.06352048,-0.01808395,0.,0.00426466,-0.33780362,0
 .,-0.04910008,0.65517911,0.,0.,-0.00819628,0.,0.,0.00576179,0.,0.,-0.0
 5529492,0.,0.,0.13004031,0.02860565,0.09088385,0.,-0.07163802,-0.00723
 480,0.,0.04242340,-0.08472882,0.,-0.27812357,-0.05041867,0.,0.65515668
 ,0.02150718,-0.02501600,0.,0.00498498,-0.00103442,0.,-0.02129153,-0.03
 195227,0.,-0.13505985,-0.18097623,0.,0.00493750,0.73793265,0.,0.,0.009
 40703,0.,0.,-0.00611054,0.,0.,0.01798749,0.,0.,-0.06118342,0.,0.,0.125
 30214,-0.09333305,-0.03499155,0.,0.03678544,-0.01790078,0.,-0.02434742
 ,0.03798744,0.,-0.06061685,-0.04077392,0.,-0.26494471,0.13941277,0.,0.
 55661633,0.04869266,-0.32068289,0.,-0.08790536,-0.02622806,0.,0.036450
 10,-0.06483279,0.,0.02935739,0.06970926,0.,0.05682911,-0.16856787,0.,-
 0.05072905,0.61339058,0.,0.,-0.06510153,0.,0.,0.01283819,0.,0.,-0.0091
 6792,0.,0.,0.00928982,0.,0.,-0.06174388,0.,0.,0.11579361,-0.01718887,-
 0.00430383,0.,0.00066535,-0.00217447,0.,0.00250250,-0.00056807,0.,-0.0
 0148767,0.00695197,0.,-0.03856459,-0.02830533,0.,-0.12834188,-0.061352
 89,0.,0.18126217,-0.03384965,-0.01691947,0.,0.00365248,-0.00522551,0.,
 0.00112180,0.00135175,0.,0.00020868,0.00009471,0.,0.00077303,0.0026832
 4,0.,-0.05714553,-0.07702017,0.,0.08913258,0.10204450,0.,0.,0.00182729
 ,0.,0.,0.00332855,0.,0.,-0.00104624,0.,0.,0.00437925,0.,0.,0.00360302,
 0.,0.,-0.01913837,0.,0.,0.01030245,-0.12548997,0.05261628,0.,-0.041586
 22,0.02602146,0.,0.00053510,-0.00613431,0.,-0.00007760,0.00206440,0.,0
 .00184808,0.00130217,0.,-0.01928472,0.00536710,0.,0.00391055,-0.002302
 82,0.,0.18327950,0.04544731,-0.06670402,0.,-0.00156716,0.00401322,0.,-
 0.00163276,0.00066551,0.,0.00064184,-0.00026025,0.,-0.00357738,-0.0042
 5814,0.,0.03351955,-0.01499167,0.,0.00318409,-0.00749183,0.,-0.0779163
 7,0.08717158,0.,0.,-0.02130893,0.,0.,0.00469435,0.,0.,0.00434413,0.,0.
 ,-0.00030701,0.,0.,0.00417171,0.,0.,0.00235677,0.,0.,-0.00107513,0.,0.
 ,0.01015353,0.00027227,-0.02724176,0.,-0.04995437,0.01201343,0.,0.0021
 5638,0.02781095,0.,-0.00392736,0.00415847,0.,-0.00154109,-0.00014393,0
 .,-0.00289666,-0.00143688,0.,-0.00082776,-0.00163097,0.,0.00116030,-0.
 00082432,0.,0.05514952,0.00226652,-0.01412130,0.,0.00407831,-0.3342635
 8,0.,0.00581201,-0.01120294,0.,0.00071202,-0.00069672,0.,0.00066185,0.
 00074000,0.,-0.00253999,0.00097333,0.,-0.00029233,-0.00037638,0.,0.000
 82160,0.00109941,0.,-0.01269066,0.35737532,0.,0.,0.00424761,0.,0.,-0.0
 3524830,0.,0.,-0.00141265,0.,0.,0.00808112,0.,0.,-0.00104730,0.,0.,0.0
 0559995,0.,0.,0.00043168,0.,0.,-0.00245895,0.,0.,0.02335343,0.00275353
 ,0.00104113,0.,-0.00505629,-0.00693587,0.,-0.00735285,-0.00284915,0.,-
 0.00792884,0.00007335,0.,0.00141635,-0.00205644,0.,0.00070789,0.000202
 82,0.,-0.00116802,-0.00084352,0.,-0.00334266,0.00105786,0.,0.00016813,
 0.00138579,0.,0.01957346,0.00085437,-0.00033045,0.,-0.00061024,-0.0031
 0151,0.,-0.00335542,-0.00354968,0.,-0.00616117,-0.00210426,0.,0.001647
 56,-0.00057823,0.,-0.00014126,0.00105015,0.,-0.00072932,-0.00037664,0.
 ,-0.00212079,0.00084278,0.,-0.00102863,0.00083918,0.,0.01119620,0.0073
 8420,0.,0.,-0.00005587,0.,0.,-0.00010345,0.,0.,0.00059431,0.,0.,0.0000
 9561,0.,0.,0.00006276,0.,0.,0.00010203,0.,0.,-0.00007177,0.,0.,0.00007
 635,0.,0.,-0.00031293,0.,0.,0.00003235,0.00044415,-0.00043559,0.,0.000
 64613,-0.00112884,0.,0.00330154,0.00409389,0.,-0.27549867,0.11228378,0
 .,-0.01895966,0.01343446,0.,-0.00124979,-0.00322919,0.,-0.00144207,-0.
 00013529,0.,-0.00009287,0.00004859,0.,0.00013514,-0.00012950,0.,0.0009
 7055,0.00083584,0.,0.29095220,-0.00151762,-0.00145545,0.,0.00220447,-0
 .00556094,0.,0.02779842,-0.01334305,0.,0.11653400,-0.11217948,0.,-0.01
 653065,0.01025459,0.,-0.00268941,-0.00025016,0.,-0.00113846,-0.0000988
 0,0.,0.00031858,0.00011066,0.,0.00100178,-0.00024334,0.,-0.00127214,0.
 00041848,0.,-0.12549901,0.12186052,0.,0.,-0.00007859,0.,0.,0.00741256,
 0.,0.,-0.00115048,0.,0.,-0.03656812,0.,0.,0.00396015,0.,0.,0.00728471,
 0.,0.,0.00017414,0.,0.,-0.00115902,0.,0.,-0.00019472,0.,0.,-0.00046071
 ,0.,0.,0.02459825,-0.00334866,0.00120058,0.,-0.00156573,0.00013938,0.,
 -0.00242045,-0.00316453,0.,0.00595598,-0.02589979,0.,-0.05567853,0.001
 27802,0.,0.00090542,0.02775418,0.,0.00068030,0.00101922,0.,-0.00085948
 ,0.00161874,0.,0.00010551,-0.00008560,0.,-0.00074124,-0.00038714,0.,0.
 00079336,0.00079004,0.,0.05617352,0.00270066,0.00096388,0.,-0.00052952
 ,0.00111099,0.,-0.00240901,-0.00065221,0.,0.00331972,-0.01068748,0.,0.
 00675742,-0.33922731,0.,-0.00400826,-0.01254970,0.,-0.00040394,0.00133
 460,0.,-0.00003730,-0.00019726,0.,0.00001251,-0.00012296,0.,-0.0010000
 3,-0.00049404,0.,-0.00013916,0.00048698,0.,-0.00426309,0.36003452,0.,0
 .,0.00624800,0.,0.,-0.00092826,0.,0.,0.00647052,0.,0.,0.00390185,0.,0.
 ,-0.03440915,0.,0.,0.00188662,0.,0.,-0.00271486,0.,0.,0.00051221,0.,0.
 ,-0.00103894,0.,0.,0.00004133,0.,0.,-0.00381815,0.,0.,0.02384883\\-0.0
 0018243,0.00004171,0.,0.00004697,-0.00000268,0.,0.00003161,0.00002021,
 0.,-0.00001097,0.00000995,0.,-0.00000619,-0.00003346,0.,0.00012204,0.0
 0006290,0.,-0.00006442,-0.00004679,0.,0.00009534,-0.00003306,0.,-0.000
 01585,-0.00000600,0.,-0.00000235,-0.00000255,0.,-0.00000790,-0.0000096
 4,0.,-0.00000583,-0.00000061,0.\\\@


 ... THE UNIVERSE IS NOT ONLY QUEERER THAN WE SUPPOSE,
 BUT QUEERER THAN WE CAN SUPPOSE ... 

                                   -- J. B. S. HALDANE
 Job cpu time:       0 days  0 hours 30 minutes 52.6 seconds.
 Elapsed time:       0 days  0 hours  7 minutes 46.2 seconds.
 File lengths (MBytes):  RWF=    190 Int=      0 D2E=      0 Chk=     34 Scr=      1
 Normal termination of Gaussian 16 at Tue Dec  9 13:47:18 2025.
