 Entering Gaussian System, Link 0=g16
 Initial command:
 /share/software/user/restricted/gaussian/g16.B01/l1.exe "/home/users/jlapier/Chloroaromatics/Gau-8832.inp" -scrdir="/home/users/jlapier/Chloroaromatics/"
 Entering Link 1 = /share/software/user/restricted/gaussian/g16.B01/l1.exe PID=      8833.
  
 Copyright (c) 1988-2017, Gaussian, Inc.  All Rights Reserved.
  
 This is part of the Gaussian(R) 16 program.  It is based on
 the Gaussian(R) 09 system (copyright 2009, Gaussian, Inc.),
 the Gaussian(R) 03 system (copyright 2003, Gaussian, Inc.),
 the Gaussian(R) 98 system (copyright 1998, Gaussian, Inc.),
 the Gaussian(R) 94 system (copyright 1995, Gaussian, Inc.),
 the Gaussian 92(TM) system (copyright 1992, Gaussian, Inc.),
 the Gaussian 90(TM) system (copyright 1990, Gaussian, Inc.),
 the Gaussian 88(TM) system (copyright 1988, Gaussian, Inc.),
 the Gaussian 86(TM) system (copyright 1986, Carnegie Mellon
 University), and the Gaussian 82(TM) system (copyright 1983,
 Carnegie Mellon University). Gaussian is a federally registered
 trademark of Gaussian, Inc.
  
 This software contains proprietary and confidential information,
 including trade secrets, belonging to Gaussian, Inc.
  
 This software is provided under written license and may be
 used, copied, transmitted, or stored only in accord with that
 written license.
  
 The following legend is applicable only to US Government
 contracts under FAR:
  
                    RESTRICTED RIGHTS LEGEND
  
 Use, reproduction and disclosure by the US Government is
 subject to restrictions as set forth in subparagraphs (a)
 and (c) of the Commercial Computer Software - Restricted
 Rights clause in FAR 52.227-19.
  
 Gaussian, Inc.
 340 Quinnipiac St., Bldg. 40, Wallingford CT 06492
  
  
 ---------------------------------------------------------------
 Warning -- This program may not be used in any manner that
 competes with the business of Gaussian, Inc. or will provide
 assistance to any competitor of Gaussian, Inc.  The licensee
 of this program is prohibited from giving any competitor of
 Gaussian, Inc. access to this program.  By using this program,
 the user acknowledges that Gaussian, Inc. is engaged in the
 business of creating and licensing software in the field of
 computational chemistry and represents and warrants to the
 licensee that it is not a competitor of Gaussian, Inc. and that
 it will not use this program in any manner prohibited above.
 ---------------------------------------------------------------
  

 Cite this work as:
 Gaussian 16, Revision B.01,
 M. J. Frisch, G. W. Trucks, H. B. Schlegel, G. E. Scuseria, 
 M. A. Robb, J. R. Cheeseman, G. Scalmani, V. Barone, 
 G. A. Petersson, H. Nakatsuji, X. Li, M. Caricato, A. V. Marenich, 
 J. Bloino, B. G. Janesko, R. Gomperts, B. Mennucci, H. P. Hratchian, 
 J. V. Ortiz, A. F. Izmaylov, J. L. Sonnenberg, D. Williams-Young, 
 F. Ding, F. Lipparini, F. Egidi, J. Goings, B. Peng, A. Petrone, 
 T. Henderson, D. Ranasinghe, V. G. Zakrzewski, J. Gao, N. Rega, 
 G. Zheng, W. Liang, M. Hada, M. Ehara, K. Toyota, R. Fukuda, 
 J. Hasegawa, M. Ishida, T. Nakajima, Y. Honda, O. Kitao, H. Nakai, 
 T. Vreven, K. Throssell, J. A. Montgomery, Jr., J. E. Peralta, 
 F. Ogliaro, M. J. Bearpark, J. J. Heyd, E. N. Brothers, K. N. Kudin, 
 V. N. Staroverov, T. A. Keith, R. Kobayashi, J. Normand, 
 K. Raghavachari, A. P. Rendell, J. C. Burant, S. S. Iyengar, 
 J. Tomasi, M. Cossi, J. M. Millam, M. Klene, C. Adamo, R. Cammi, 
 J. W. Ochterski, R. L. Martin, K. Morokuma, O. Farkas, 
 J. B. Foresman, and D. J. Fox, Gaussian, Inc., Wallingford CT, 2016.
 
 ******************************************
 Gaussian 16:  ES64L-G16RevB.01 20-Dec-2017
                 9-Dec-2025 
 ******************************************
 %mem=8GB
 %nprocshare=4
 Will use up to    4 processors via shared memory.
 %oldchk=geometry_chks/12_45ClBzNeutralRadical.chk
 %chk=frequency_chks/12_45ClBzNeutralRadical_Freq.chk
 Copying data from "geometry_chks/12_45ClBzNeutralRadical.chk" to current chk file "frequency_chks/12_45ClBzNeutralRadical_Freq.chk"
 IOpt=  2 FromEx=T IUOpen= 4 IOptOp= 5 NList=   0 IFRang= 0 IUIn= 4 IUOut= 2.
 -------------------------------------------------------
 # opt freq 6-311++g(d,p) guess=read geom=allcheck m062x
 -------------------------------------------------------
 1/18=20,19=15,26=3,29=7,38=1/1,3;
 2/9=110,12=2,40=1/2;
 3/5=4,6=6,7=1111,11=2,14=-4,25=1,30=1,71=1,74=-55,116=-2/1,2,3;
 4/5=1/1;
 5/5=2,38=6/2;
 6/7=2,8=2,9=2,10=2,28=1/1;
 7//1,2,3,16;
 1/18=20,19=15,26=3/3(2);
 2/9=110/2;
 99//99;
 2/9=110/2;
 3/5=4,6=6,7=1111,11=2,14=-2,25=1,30=1,71=1,74=-55/1,2,3;
 4/5=5,16=3,69=1/1;
 5/5=2,38=5/2;
 7//1,2,3,16;
 1/18=20,19=15,26=3/3(-5);
 2/9=110/2;
 6/7=2,8=2,9=2,10=2,19=2,28=1/1;
 99/9=1/99;
 Structure from the checkpoint file:  "frequency_chks/12_45ClBzNeutralRadical_Freq.chk"
 ---------------------------------
 Neutral Radical (removed 3) 12_45
 ---------------------------------
 Charge =  0 Multiplicity = 2
 Redundant internal coordinates found in file.  (old form).
 C,0,-3.2341023157,0.1493787805,0.
 C,0,-2.0068827105,0.7675073968,0.
 C,0,-0.7475780648,0.217686716,0.
 C,0,-0.7234727595,-1.2036391947,0.
 C,0,-1.9330047595,-1.921778037,0.
 C,0,-3.1801389127,-1.271126931,0.
 Cl,0,-4.5951886289,-2.1881963389,0.
 Cl,0,-4.6692532092,1.0162957293,0.
 Cl,0,0.6378136201,1.1620877632,0.
 Cl,0,0.7397907693,-2.0416379711,0.
 H,0,-1.9027030286,-3.0248079131,0.
 Recover connectivity data from disk.

 GradGradGradGradGradGradGradGradGradGradGradGradGradGradGradGradGradGrad
 Berny optimization.
 Initialization pass.
                           ----------------------------
                           !    Initial Parameters    !
                           ! (Angstroms and Degrees)  !
 --------------------------                            --------------------------
 ! Name  Definition              Value          Derivative Info.                !
 --------------------------------------------------------------------------------
 ! R1    R(1,2)                  1.3741         estimate D2E/DX2                !
 ! R2    R(1,6)                  1.4215         estimate D2E/DX2                !
 ! R3    R(1,8)                  1.6767         estimate D2E/DX2                !
 ! R4    R(2,3)                  1.3741         estimate D2E/DX2                !
 ! R5    R(3,4)                  1.4215         estimate D2E/DX2                !
 ! R6    R(3,9)                  1.6767         estimate D2E/DX2                !
 ! R7    R(4,5)                  1.4067         estimate D2E/DX2                !
 ! R8    R(4,10)                 1.6862         estimate D2E/DX2                !
 ! R9    R(5,6)                  1.4067         estimate D2E/DX2                !
 ! R10   R(5,11)                 1.1034         estimate D2E/DX2                !
 ! R11   R(6,7)                  1.6862         estimate D2E/DX2                !
 ! A1    A(2,1,6)              114.558          estimate D2E/DX2                !
 ! A2    A(2,1,8)              122.1319         estimate D2E/DX2                !
 ! A3    A(6,1,8)              123.31           estimate D2E/DX2                !
 ! A4    A(1,2,3)              129.68           estimate D2E/DX2                !
 ! A5    A(2,3,4)              114.558          estimate D2E/DX2                !
 ! A6    A(2,3,9)              122.1319         estimate D2E/DX2                !
 ! A7    A(4,3,9)              123.31           estimate D2E/DX2                !
 ! A8    A(3,4,5)              119.7274         estimate D2E/DX2                !
 ! A9    A(3,4,10)             120.771          estimate D2E/DX2                !
 ! A10   A(5,4,10)             119.5016         estimate D2E/DX2                !
 ! A11   A(4,5,6)              121.7492         estimate D2E/DX2                !
 ! A12   A(4,5,11)             119.1254         estimate D2E/DX2                !
 ! A13   A(6,5,11)             119.1254         estimate D2E/DX2                !
 ! A14   A(1,6,5)              119.7274         estimate D2E/DX2                !
 ! A15   A(1,6,7)              120.771          estimate D2E/DX2                !
 ! A16   A(5,6,7)              119.5016         estimate D2E/DX2                !
 ! D1    D(6,1,2,3)              0.0            estimate D2E/DX2                !
 ! D2    D(8,1,2,3)            180.0            estimate D2E/DX2                !
 ! D3    D(2,1,6,5)              0.0            estimate D2E/DX2                !
 ! D4    D(2,1,6,7)            180.0            estimate D2E/DX2                !
 ! D5    D(8,1,6,5)            180.0            estimate D2E/DX2                !
 ! D6    D(8,1,6,7)              0.0            estimate D2E/DX2                !
 ! D7    D(1,2,3,4)              0.0            estimate D2E/DX2                !
 ! D8    D(1,2,3,9)            180.0            estimate D2E/DX2                !
 ! D9    D(2,3,4,5)              0.0            estimate D2E/DX2                !
 ! D10   D(2,3,4,10)           180.0            estimate D2E/DX2                !
 ! D11   D(9,3,4,5)            180.0            estimate D2E/DX2                !
 ! D12   D(9,3,4,10)             0.0            estimate D2E/DX2                !
 ! D13   D(3,4,5,6)              0.0            estimate D2E/DX2                !
 ! D14   D(3,4,5,11)           180.0            estimate D2E/DX2                !
 ! D15   D(10,4,5,6)           180.0            estimate D2E/DX2                !
 ! D16   D(10,4,5,11)            0.0            estimate D2E/DX2                !
 ! D17   D(4,5,6,1)              0.0            estimate D2E/DX2                !
 ! D18   D(4,5,6,7)            180.0            estimate D2E/DX2                !
 ! D19   D(11,5,6,1)           180.0            estimate D2E/DX2                !
 ! D20   D(11,5,6,7)             0.0            estimate D2E/DX2                !
 --------------------------------------------------------------------------------
 Trust Radius=3.00D-01 FncErr=1.00D-07 GrdErr=1.00D-06 EigMax=2.50D+02 EigMin=1.00D-04
 Number of steps in this run=     57 maximum allowed number of steps=    100.
 GradGradGradGradGradGradGradGradGradGradGradGradGradGradGradGradGradGrad

                          Input orientation:                          
 ---------------------------------------------------------------------
 Center     Atomic      Atomic             Coordinates (Angstroms)
 Number     Number       Type             X           Y           Z
 ---------------------------------------------------------------------
      1          6           0       -3.234102    0.149379    0.000000
      2          6           0       -2.006883    0.767507    0.000000
      3          6           0       -0.747578    0.217687    0.000000
      4          6           0       -0.723473   -1.203639    0.000000
      5          6           0       -1.933005   -1.921778    0.000000
      6          6           0       -3.180139   -1.271127    0.000000
      7         17           0       -4.595189   -2.188196    0.000000
      8         17           0       -4.669253    1.016296    0.000000
      9         17           0        0.637814    1.162088    0.000000
     10         17           0        0.739791   -2.041638    0.000000
     11          1           0       -1.902703   -3.024808    0.000000
 ---------------------------------------------------------------------
                    Distance matrix (angstroms):
                    1          2          3          4          5
     1  C    0.000000
     2  C    1.374100   0.000000
     3  C    2.487462   1.374100   0.000000
     4  C    2.852003   2.352139   1.421530   0.000000
     5  C    2.445924   2.690300   2.445924   1.406660   0.000000
     6  C    1.421530   2.352139   2.852003   2.457593   1.406659
     7  Cl   2.704961   3.928805   4.537883   3.994939   2.675482
     8  Cl   1.676664   2.673969   4.002163   4.527394   4.014889
     9  Cl   4.002163   2.673969   1.676664   2.729426   4.014889
    10  Cl   4.537883   3.928806   2.704961   1.686233   2.675482
    11  H    3.442105   3.793746   3.442105   2.169617   1.103446
                    6          7          8          9         10
     6  C    0.000000
     7  Cl   1.686233   0.000000
     8  Cl   2.729426   3.205348   0.000000
     9  Cl   4.527394   6.213591   5.309069   0.000000
    10  Cl   3.994939   5.336992   6.213591   3.205348   0.000000
    11  H    2.169617   2.819468   4.897379   4.897379   2.819467
                   11
    11  H    0.000000
 Stoichiometry    C6HCl4(2)
 Framework group  CS[SG(C6HCl4)]
 Deg. of freedom    19
 Full point group                 CS      NOp   2
 Largest Abelian subgroup         CS      NOp   2
 Largest concise Abelian subgroup C1      NOp   1
                         Standard orientation:                         
 ---------------------------------------------------------------------
 Center     Atomic      Atomic             Coordinates (Angstroms)
 Number     Number       Type             X           Y           Z
 ---------------------------------------------------------------------
      1          6           0       -0.731154    1.243731    0.000000
      2          6           0       -1.315349   -0.000000    0.000000
      3          6           0       -0.731154   -1.243731    0.000000
      4          6           0        0.690298   -1.228797    0.000000
      5          6           0        1.374951    0.000000    0.000000
      6          6           0        0.690298    1.228796    0.000000
      7         17           0        1.568163    2.668496    0.000000
      8         17           0       -1.637155    2.654534    0.000000
      9         17           0       -1.637155   -2.654535    0.000000
     10         17           0        1.568163   -2.668496    0.000000
     11          1           0        2.478397   -0.000000    0.000000
 ---------------------------------------------------------------------
 Rotational constants (GHZ):           1.1663181           0.4748908           0.3374791
 Standard basis: 6-311++G(d,p) (5D, 7F)
 There are   200 symmetry adapted cartesian basis functions of A'  symmetry.
 There are    69 symmetry adapted cartesian basis functions of A"  symmetry.
 There are   190 symmetry adapted basis functions of A'  symmetry.
 There are    69 symmetry adapted basis functions of A"  symmetry.
   259 basis functions,   437 primitive gaussians,   269 cartesian basis functions
    53 alpha electrons       52 beta electrons
       nuclear repulsion energy       814.4721824875 Hartrees.
 NAtoms=   11 NActive=   11 NUniq=   11 SFac= 1.00D+00 NAtFMM=   60 NAOKFM=F Big=F
 Integral buffers will be    131072 words long.
 Raffenetti 2 integral format.
 Two-electron integral symmetry is turned on.
 One-electron integrals computed using PRISM.
 NBasis=   259 RedAO= T EigKep=  1.42D-06  NBF=   190    69
 NBsUse=   258 1.00D-06 EigRej=  6.10D-07 NBFU=   189    69
 Initial guess from the checkpoint file:  "frequency_chks/12_45ClBzNeutralRadical_Freq.chk"
 B after Tr=    -0.000000    0.000000    0.000000
         Rot=    1.000000   -0.000000   -0.000000   -0.000000 Ang=   0.00 deg.
 Initial guess orbital symmetries:
 Alpha Orbitals:
       Occupied  (A') (A') (A') (A') (A') (A') (A') (A') (A') (A')
                 (A') (A') (A') (A") (A') (A') (A") (A") (A") (A')
                 (A') (A') (A') (A") (A') (A") (A") (A") (A") (A')
                 (A') (A') (A') (A") (A') (A') (A') (A') (A') (A')
                 (A') (A') (A') (A') (A') (A') (A') (A') (A') (A')
                 (A') (A') (A')
       Virtual   (A') (A') (A') (A') (A') (A') (A') (A') (A') (A')
                 (A') (A') (A') (A') (A') (A') (A') (A') (A') (A')
                 (A') (A') (A') (A') (A') (A') (A') (A') (A') (A')
                 (A') (A') (A') (A') (A') (A') (A') (A') (A') (A')
                 (A') (A') (A') (A') (A') (A') (A') (A') (A') (A')
                 (A') (A') (A') (A') (A') (A') (A') (A') (A') (A')
                 (A') (A') (A') (A') (A') (A') (A') (A') (A') (A')
                 (A') (A') (A') (A') (A') (A') (A') (A') (A') (A')
                 (A') (A') (A') (A') (A') (A') (A') (A') (A') (A')
                 (A') (A') (A') (A') (A') (A') (A') (A') (A') (A')
                 (A') (A') (A') (A') (A') (A') (A') (A') (A') (A')
                 (A') (A') (A') (A') (A') (A') (A') (A') (A') (A')
                 (A') (A') (A') (A') (A') (A') (A') (A') (A') (A')
                 (A') (A') (A') (A') (A') (A') (A') (A') (A') (A')
                 (A') (A') (A') (A') (A') (A') (A") (A") (A") (A")
                 (A") (A") (A") (A") (A") (A") (A") (A") (A") (A")
                 (A") (A") (A") (A") (A") (A") (A") (A") (A") (A")
                 (A") (A") (A") (A") (A") (A") (A") (A") (A") (A")
                 (A") (A") (A") (A") (A") (A") (A") (A") (A") (A")
                 (A") (A") (A") (A") (A") (A") (A") (A") (A") (A")
                 (A") (A") (A") (A") (A")
 Beta  Orbitals:
       Occupied  (A') (A') (A') (A') (A') (A') (A') (A') (A') (A')
                 (A') (A') (A') (A") (A') (A') (A") (A") (A") (A')
                 (A') (A') (A') (A") (A") (A") (A') (A") (A") (A')
                 (A') (A') (A') (A") (A') (A') (A') (A') (A') (A')
                 (A') (A') (A') (A') (A') (A') (A') (A') (A') (A')
                 (A') (A')
       Virtual   (A') (A') (A') (A') (A') (A') (A') (A') (A') (A')
                 (A') (A') (A') (A') (A') (A') (A') (A') (A') (A')
                 (A') (A') (A') (A') (A') (A') (A') (A') (A') (A')
                 (A') (A') (A') (A') (A') (A') (A') (A') (A') (A')
                 (A') (A') (A') (A') (A') (A') (A') (A') (A') (A')
                 (A') (A') (A') (A') (A') (A') (A') (A') (A') (A')
                 (A') (A') (A') (A') (A') (A') (A') (A') (A') (A')
                 (A') (A') (A') (A') (A') (A') (A') (A') (A') (A')
                 (A') (A') (A') (A') (A') (A') (A') (A') (A') (A')
                 (A') (A') (A') (A') (A') (A') (A') (A') (A') (A')
                 (A') (A') (A') (A') (A') (A') (A') (A') (A') (A')
                 (A') (A') (A') (A') (A') (A') (A') (A') (A') (A')
                 (A') (A') (A') (A') (A') (A') (A') (A') (A') (A')
                 (A') (A') (A') (A') (A') (A') (A') (A') (A') (A')
                 (A') (A') (A') (A') (A') (A') (A') (A") (A") (A")
                 (A") (A") (A") (A") (A") (A") (A") (A") (A") (A")
                 (A") (A") (A") (A") (A") (A") (A") (A") (A") (A")
                 (A") (A") (A") (A") (A") (A") (A") (A") (A") (A")
                 (A") (A") (A") (A") (A") (A") (A") (A") (A") (A")
                 (A") (A") (A") (A") (A") (A") (A") (A") (A") (A")
                 (A") (A") (A") (A") (A") (A")
 Initial guess <Sx>= 0.0000 <Sy>= 0.0000 <Sz>= 0.5000 <S**2>= 0.7500 S= 0.5000
 Keep R1 and R2 ints in memory in symmetry-blocked form, NReq=892001928.
 Requested convergence on RMS density matrix=1.00D-08 within 128 cycles.
 Requested convergence on MAX density matrix=1.00D-06.
 Requested convergence on             energy=1.00D-06.
 No special actions if energy rises.
 EnCoef did     4 forward-backward iterations
 EnCoef did     5 forward-backward iterations
 SCF Done:  E(UM062X) =  -2069.89418417     A.U. after   30 cycles
            NFock= 30  Conv=0.82D-08     -V/T= 2.0022
 <Sx>= 0.0000 <Sy>= 0.0000 <Sz>= 0.5000 <S**2>= 0.7636 S= 0.5068
 <L.S>=  0.00000000000    
 Annihilation of the first spin contaminant:
 S**2 before annihilation     0.7636,   after     0.7501

 **********************************************************************

            Population analysis using the SCF Density.

 **********************************************************************

 Orbital symmetries:
 Alpha Orbitals:
       Occupied  (A') (A') (A') (A') (A') (A') (A') (A') (A') (A')
                 (A') (A') (A') (A') (A') (A') (A') (A') (A") (A")
                 (A') (A') (A") (A") (A') (A') (A') (A') (A') (A')
                 (A') (A') (A') (A') (A') (A') (A') (A') (A') (A")
                 (A') (A') (A") (A") (A") (A') (A') (A') (A') (A")
                 (A') (A") (A")
       Virtual   (A") (A") (A') (A') (A') (A') (A') (A') (A") (A')
                 (A') (A") (A") (A') (A') (A') (A') (A") (A') (A")
                 (A') (A") (A') (A') (A') (A") (A') (A") (A") (A')
                 (A') (A') (A') (A") (A') (A") (A') (A') (A') (A')
                 (A') (A') (A') (A') (A') (A') (A') (A') (A') (A')
                 (A') (A') (A') (A') (A') (A") (A") (A') (A') (A")
                 (A') (A") (A') (A') (A') (A") (A') (A') (A") (A")
                 (A') (A") (A") (A') (A') (A') (A") (A') (A') (A')
                 (A") (A') (A") (A') (A') (A') (A') (A') (A") (A')
                 (A") (A") (A") (A') (A") (A') (A') (A') (A") (A')
                 (A') (A') (A') (A") (A') (A') (A') (A') (A") (A')
                 (A') (A') (A') (A") (A') (A') (A") (A') (A") (A")
                 (A') (A') (A') (A') (A') (A") (A') (A') (A') (A")
                 (A') (A") (A') (A") (A") (A') (A') (A") (A') (A')
                 (A') (A") (A") (A') (A") (A") (A') (A") (A') (A')
                 (A') (A') (A') (A') (A') (A') (A') (A') (A") (A')
                 (A') (A") (A") (A") (A") (A') (A') (A") (A') (A')
                 (A') (A') (A') (A') (A') (A') (A') (A') (A') (A')
                 (A') (A') (A') (A') (A') (A') (A') (A') (A') (A")
                 (A") (A") (A") (A') (A') (A') (A') (A') (A') (A')
                 (A') (A') (A') (A') (A')
 Beta  Orbitals:
       Occupied  (A') (A') (A') (A') (A') (A') (A') (A') (A') (A')
                 (A') (A') (A') (A') (A') (A') (A') (A') (A") (A")
                 (A') (A') (A") (A") (A') (A') (A') (A') (A') (A')
                 (A') (A') (A') (A') (A') (A') (A') (A') (A') (A")
                 (A') (A') (A") (A") (A") (A') (A') (A') (A') (A")
                 (A") (A")
       Virtual   (A') (A") (A") (A') (A') (A') (A') (A') (A') (A")
                 (A') (A") (A') (A") (A') (A') (A') (A') (A") (A')
                 (A") (A') (A") (A') (A') (A') (A") (A') (A") (A")
                 (A') (A') (A') (A') (A") (A') (A") (A') (A') (A')
                 (A') (A') (A') (A') (A') (A') (A') (A') (A') (A')
                 (A') (A') (A') (A') (A') (A') (A") (A") (A') (A')
                 (A") (A') (A") (A') (A') (A') (A') (A") (A') (A')
                 (A") (A") (A") (A") (A') (A') (A") (A') (A') (A')
                 (A') (A") (A') (A") (A') (A') (A') (A') (A') (A")
                 (A') (A") (A") (A") (A") (A') (A') (A') (A') (A")
                 (A') (A') (A') (A') (A") (A') (A') (A') (A') (A")
                 (A') (A') (A') (A') (A") (A') (A') (A') (A") (A")
                 (A") (A') (A') (A') (A') (A') (A") (A') (A') (A")
                 (A') (A") (A') (A') (A") (A') (A") (A') (A") (A')
                 (A') (A') (A") (A") (A') (A") (A") (A') (A") (A')
                 (A') (A') (A') (A') (A') (A') (A') (A') (A') (A")
                 (A') (A') (A") (A") (A") (A") (A') (A') (A") (A')
                 (A') (A') (A') (A') (A') (A') (A') (A') (A') (A')
                 (A') (A') (A') (A') (A') (A') (A') (A') (A') (A')
                 (A") (A") (A") (A") (A') (A') (A') (A') (A') (A')
                 (A') (A') (A') (A') (A') (A')
 The electronic state is 2-A'.
 Alpha  occ. eigenvalues -- -102.70582-102.70582-102.70423-102.70423 -10.64955
 Alpha  occ. eigenvalues --  -10.64954 -10.64743 -10.64742 -10.61869 -10.59702
 Alpha  occ. eigenvalues --   -9.84914  -9.84914  -9.84765  -9.84764  -7.57481
 Alpha  occ. eigenvalues --   -7.57481  -7.57301  -7.57301  -7.56726  -7.56726
 Alpha  occ. eigenvalues --   -7.56719  -7.56719  -7.56599  -7.56599  -7.56574
 Alpha  occ. eigenvalues --   -7.56574  -1.07070  -1.03793  -1.00256  -0.99185
 Alpha  occ. eigenvalues --   -0.94177  -0.85945  -0.83130  -0.72610  -0.70395
 Alpha  occ. eigenvalues --   -0.61835  -0.60959  -0.56223  -0.54480  -0.53919
 Alpha  occ. eigenvalues --   -0.51312  -0.49812  -0.48571  -0.45358  -0.43562
 Alpha  occ. eigenvalues --   -0.42919  -0.40821  -0.40586  -0.39657  -0.39221
 Alpha  occ. eigenvalues --   -0.35255  -0.33574  -0.30671
 Alpha virt. eigenvalues --   -0.02708  -0.02517   0.00082   0.01739   0.01890
 Alpha virt. eigenvalues --    0.02936   0.04169   0.04997   0.05123   0.06161
 Alpha virt. eigenvalues --    0.06439   0.06670   0.07293   0.07690   0.08742
 Alpha virt. eigenvalues --    0.10079   0.10115   0.10380   0.10672   0.11032
 Alpha virt. eigenvalues --    0.11756   0.12537   0.12670   0.13004   0.13707
 Alpha virt. eigenvalues --    0.14122   0.14745   0.15236   0.15816   0.16303
 Alpha virt. eigenvalues --    0.16434   0.16807   0.18896   0.19609   0.20239
 Alpha virt. eigenvalues --    0.20339   0.21576   0.21838   0.23179   0.23369
 Alpha virt. eigenvalues --    0.23997   0.24718   0.25568   0.25658   0.26398
 Alpha virt. eigenvalues --    0.27793   0.28875   0.29554   0.30153   0.30957
 Alpha virt. eigenvalues --    0.31705   0.32642   0.43098   0.43380   0.44066
 Alpha virt. eigenvalues --    0.44835   0.45966   0.46259   0.47656   0.48409
 Alpha virt. eigenvalues --    0.48933   0.50001   0.50257   0.50804   0.52490
 Alpha virt. eigenvalues --    0.53932   0.54862   0.56116   0.59657   0.60819
 Alpha virt. eigenvalues --    0.61009   0.61141   0.63937   0.65514   0.65846
 Alpha virt. eigenvalues --    0.67261   0.68310   0.69180   0.70092   0.75407
 Alpha virt. eigenvalues --    0.77473   0.78094   0.82622   0.85239   0.86569
 Alpha virt. eigenvalues --    0.86929   0.87242   0.88860   0.88922   0.89169
 Alpha virt. eigenvalues --    0.89279   0.90535   0.91490   0.93089   0.93319
 Alpha virt. eigenvalues --    0.94097   0.94384   0.95571   0.97176   0.97675
 Alpha virt. eigenvalues --    0.98036   0.98372   1.00429   1.01162   1.02859
 Alpha virt. eigenvalues --    1.03439   1.09442   1.11865   1.15988   1.17309
 Alpha virt. eigenvalues --    1.21813   1.22335   1.25266   1.27647   1.29283
 Alpha virt. eigenvalues --    1.31254   1.32423   1.32624   1.33242   1.37054
 Alpha virt. eigenvalues --    1.38317   1.46844   1.49447   1.55388   1.58665
 Alpha virt. eigenvalues --    1.61572   1.67871   1.75330   1.79935   1.80386
 Alpha virt. eigenvalues --    1.83336   1.83670   1.87536   1.88283   1.93450
 Alpha virt. eigenvalues --    1.93778   2.04513   2.05812   2.11873   2.18236
 Alpha virt. eigenvalues --    2.23211   2.26353   2.26773   2.27604   2.28630
 Alpha virt. eigenvalues --    2.30996   2.32489   2.32980   2.35965   2.41351
 Alpha virt. eigenvalues --    2.44288   2.45402   2.50712   2.52035   2.55648
 Alpha virt. eigenvalues --    2.60377   2.61013   2.64680   2.65585   2.66027
 Alpha virt. eigenvalues --    2.75293   2.79056   2.80994   2.88965   2.92010
 Alpha virt. eigenvalues --    2.96932   3.04670   3.08547   3.12466   3.21750
 Alpha virt. eigenvalues --    3.23243   3.31497   3.36113   3.58321   3.62331
 Alpha virt. eigenvalues --    3.81823   3.93607   4.05092   4.73965   9.92057
 Alpha virt. eigenvalues --    9.97776   9.99649  10.00400  23.35910  23.84570
 Alpha virt. eigenvalues --   23.85654  23.96397  24.06349  24.14408  25.86939
 Alpha virt. eigenvalues --   25.88652  25.95109  25.97343  26.14713  26.17655
 Alpha virt. eigenvalues --   26.17684  26.42141  26.53673  26.62154  26.86928
 Alpha virt. eigenvalues --   26.88249 216.01712 216.08028 216.10195 216.11235
  Beta  occ. eigenvalues -- -102.70550-102.70550-102.70400-102.70400 -10.64886
  Beta  occ. eigenvalues --  -10.64884 -10.64782 -10.64782 -10.60873 -10.59733
  Beta  occ. eigenvalues --   -9.84901  -9.84901  -9.84756  -9.84755  -7.57401
  Beta  occ. eigenvalues --   -7.57401  -7.57260  -7.57260  -7.56733  -7.56733
  Beta  occ. eigenvalues --   -7.56689  -7.56689  -7.56583  -7.56583  -7.56556
  Beta  occ. eigenvalues --   -7.56556  -1.06572  -1.03624  -0.99929  -0.99028
  Beta  occ. eigenvalues --   -0.93517  -0.84769  -0.82816  -0.70862  -0.69959
  Beta  occ. eigenvalues --   -0.61256  -0.60422  -0.55688  -0.54245  -0.53479
  Beta  occ. eigenvalues --   -0.50701  -0.49440  -0.48577  -0.45112  -0.43540
  Beta  occ. eigenvalues --   -0.41973  -0.40584  -0.40397  -0.39529  -0.38794
  Beta  occ. eigenvalues --   -0.32419  -0.30750
  Beta virt. eigenvalues --   -0.09907  -0.02760  -0.01454   0.00148   0.01674
  Beta virt. eigenvalues --    0.01898   0.02521   0.04152   0.05008   0.05232
  Beta virt. eigenvalues --    0.05348   0.06227   0.06481   0.07296   0.08177
  Beta virt. eigenvalues --    0.08729   0.09846   0.09974   0.10358   0.10722
  Beta virt. eigenvalues --    0.11060   0.11733   0.12298   0.12669   0.13284
  Beta virt. eigenvalues --    0.13762   0.14050   0.14564   0.15760   0.15859
  Beta virt. eigenvalues --    0.16272   0.16377   0.16711   0.18927   0.19580
  Beta virt. eigenvalues --    0.19832   0.20200   0.21626   0.21702   0.22932
  Beta virt. eigenvalues --    0.22978   0.24136   0.24755   0.25696   0.25891
  Beta virt. eigenvalues --    0.26541   0.27861   0.28093   0.29995   0.30186
  Beta virt. eigenvalues --    0.30716   0.31984   0.33343   0.42681   0.43521
  Beta virt. eigenvalues --    0.43914   0.44875   0.45981   0.46386   0.47541
  Beta virt. eigenvalues --    0.48467   0.49101   0.50030   0.50331   0.50971
  Beta virt. eigenvalues --    0.52487   0.53296   0.54134   0.55123   0.58840
  Beta virt. eigenvalues --    0.59838   0.60826   0.61231   0.63942   0.65521
  Beta virt. eigenvalues --    0.67060   0.68115   0.68191   0.69860   0.70154
  Beta virt. eigenvalues --    0.74541   0.77697   0.78384   0.82690   0.85252
  Beta virt. eigenvalues --    0.86495   0.86887   0.87421   0.88894   0.89018
  Beta virt. eigenvalues --    0.89288   0.89387   0.90586   0.91542   0.93452
  Beta virt. eigenvalues --    0.93794   0.94024   0.94740   0.95147   0.97341
  Beta virt. eigenvalues --    0.97674   0.97946   0.98089   1.00384   1.01677
  Beta virt. eigenvalues --    1.02610   1.03482   1.10256   1.11831   1.16874
  Beta virt. eigenvalues --    1.17136   1.20979   1.22414   1.25254   1.28732
  Beta virt. eigenvalues --    1.29522   1.31087   1.32415   1.33284   1.33947
  Beta virt. eigenvalues --    1.37128   1.37734   1.47948   1.50162   1.57072
  Beta virt. eigenvalues --    1.59912   1.61827   1.68031   1.75316   1.80341
  Beta virt. eigenvalues --    1.80540   1.84082   1.84225   1.88429   1.88821
  Beta virt. eigenvalues --    1.94260   1.94262   2.05099   2.05854   2.11979
  Beta virt. eigenvalues --    2.18332   2.23950   2.26373   2.26810   2.27975
  Beta virt. eigenvalues --    2.29009   2.31077   2.33028   2.33044   2.36004
  Beta virt. eigenvalues --    2.41345   2.45152   2.45471   2.50887   2.52133
  Beta virt. eigenvalues --    2.55886   2.60438   2.61321   2.65638   2.65729
  Beta virt. eigenvalues --    2.66177   2.75280   2.79628   2.81005   2.89109
  Beta virt. eigenvalues --    2.91836   2.99405   3.06283   3.08602   3.12721
  Beta virt. eigenvalues --    3.21762   3.23308   3.31920   3.36337   3.58959
  Beta virt. eigenvalues --    3.62421   3.81914   3.94325   4.05159   4.74205
  Beta virt. eigenvalues --    9.92071   9.97781   9.99658  10.00408  23.36048
  Beta virt. eigenvalues --   23.84709  23.85696  23.96405  24.06353  24.15249
  Beta virt. eigenvalues --   25.86965  25.88677  25.95135  25.97368  26.14780
  Beta virt. eigenvalues --   26.17700  26.17751  26.42189  26.53823  26.62320
  Beta virt. eigenvalues --   26.87056  26.88417 216.01755 216.08071 216.10239
  Beta virt. eigenvalues --  216.11279
          Condensed to atoms (all electrons):
               1          2          3          4          5          6
     1  C   29.720449   3.436234  -9.248216  -5.181236  -8.787218  -2.498407
     2  C    3.436234  24.875005   3.436228  -9.686677  -4.995050  -9.686674
     3  C   -9.248216   3.436228  29.720459  -2.498413  -8.787217  -5.181235
     4  C   -5.181236  -9.686677  -2.498413  27.693640   3.602528  -7.554231
     5  C   -8.787218  -4.995050  -8.787217   3.602528  21.219307   3.602522
     6  C   -2.498407  -9.686674  -5.181235  -7.554231   3.602522  27.693636
     7  Cl   0.105518   0.484775   0.490630  -0.374938  -0.113672  -1.285704
     8  Cl  -1.264987  -0.701953  -0.450169   0.523336   0.424402   0.646663
     9  Cl  -0.450169  -0.701954  -1.264986   0.646663   0.424402   0.523336
    10  Cl   0.490629   0.484776   0.105517  -1.285705  -0.113671  -0.374937
    11  H   -0.059498   0.072870  -0.059498  -0.106276   0.545904  -0.106275
               7          8          9         10         11
     1  C    0.105518  -1.264987  -0.450169   0.490629  -0.059498
     2  C    0.484775  -0.701953  -0.701954   0.484776   0.072870
     3  C    0.490630  -0.450169  -1.264986   0.105517  -0.059498
     4  C   -0.374938   0.523336   0.646663  -1.285705  -0.106276
     5  C   -0.113672   0.424402   0.424402  -0.113671   0.545904
     6  C   -1.285704   0.646663   0.523336  -0.374937  -0.106275
     7  Cl  17.569395  -0.291119  -0.006174  -0.023108   0.013492
     8  Cl  -0.291119  17.639941  -0.025897  -0.006174  -0.009073
     9  Cl  -0.006174  -0.025897  17.639941  -0.291119  -0.009073
    10  Cl  -0.023108  -0.006174  -0.291119  17.569395   0.013492
    11  H    0.013492  -0.009073  -0.009073   0.013492   0.472402
          Atomic-Atomic Spin Densities.
               1          2          3          4          5          6
     1  C   -0.142115   0.105252   0.528592   0.068530  -0.349204  -0.252373
     2  C    0.105252   0.546476   0.105252  -0.025523   0.253172  -0.025524
     3  C    0.528592   0.105252  -0.142115  -0.252373  -0.349204   0.068530
     4  C    0.068530  -0.025523  -0.252373   0.283385  -0.047824   0.035880
     5  C   -0.349204   0.253172  -0.349204  -0.047824   0.541452  -0.047824
     6  C   -0.252373  -0.025524   0.068530   0.035880  -0.047824   0.283385
     7  Cl   0.126642  -0.002537   0.025009  -0.005799  -0.101856  -0.055892
     8  Cl  -0.074888  -0.053534  -0.037221   0.002189   0.063894   0.087061
     9  Cl  -0.037220  -0.053534  -0.074888   0.087061   0.063894   0.002189
    10  Cl   0.025009  -0.002537   0.126642  -0.055892  -0.101856  -0.005799
    11  H   -0.005414  -0.000737  -0.005414   0.000772   0.012670   0.000772
               7          8          9         10         11
     1  C    0.126642  -0.074888  -0.037220   0.025009  -0.005414
     2  C   -0.002537  -0.053534  -0.053534  -0.002537  -0.000737
     3  C    0.025009  -0.037221  -0.074888   0.126642  -0.005414
     4  C   -0.005799   0.002189   0.087061  -0.055892   0.000772
     5  C   -0.101856   0.063894   0.063894  -0.101856   0.012670
     6  C   -0.055892   0.087061   0.002189  -0.005799   0.000772
     7  Cl   0.059445  -0.029921  -0.001033   0.003236  -0.001703
     8  Cl  -0.029921   0.049188   0.002566  -0.001033   0.000382
     9  Cl  -0.001033   0.002566   0.049188  -0.029921   0.000382
    10  Cl   0.003236  -0.001033  -0.029921   0.059445  -0.001703
    11  H   -0.001703   0.000382   0.000382  -0.001703   0.001463
 Mulliken charges and spin densities:
               1          2
     1  C   -0.263100  -0.007188
     2  C   -1.017580   0.846227
     3  C   -0.263099  -0.007188
     4  C    0.221308   0.090406
     5  C   -1.022238  -0.062686
     6  C    0.221307   0.090406
     7  Cl   0.430906   0.015592
     8  Cl   0.515029   0.008684
     9  Cl   0.515029   0.008684
    10  Cl   0.430905   0.015592
    11  H    0.231533   0.001472
 Sum of Mulliken charges =  -0.00000   1.00000
 Mulliken charges and spin densities with hydrogens summed into heavy atoms:
               1          2
     1  C   -0.263100  -0.007188
     2  C   -1.017580   0.846227
     3  C   -0.263099  -0.007188
     4  C    0.221308   0.090406
     5  C   -0.790705  -0.061214
     6  C    0.221307   0.090406
     7  Cl   0.430906   0.015592
     8  Cl   0.515029   0.008684
     9  Cl   0.515029   0.008684
    10  Cl   0.430905   0.015592
 Electronic spatial extent (au):  <R**2>=           2805.9722
 Charge=             -0.0000 electrons
 Dipole moment (field-independent basis, Debye):
    X=              0.7431    Y=              0.0000    Z=              0.0000  Tot=              0.7431
 Quadrupole moment (field-independent basis, Debye-Ang):
   XX=            -81.9277   YY=            -85.2489   ZZ=            -85.6581
   XY=             -0.0000   XZ=              0.0000   YZ=              0.0000
 Traceless Quadrupole moment (field-independent basis, Debye-Ang):
   XX=              2.3505   YY=             -0.9707   ZZ=             -1.3799
   XY=             -0.0000   XZ=              0.0000   YZ=              0.0000
 Octapole moment (field-independent basis, Debye-Ang**2):
  XXX=              9.6885  YYY=              0.0000  ZZZ=              0.0000  XYY=             -2.3795
  XXY=             -0.0000  XXZ=              0.0000  XZZ=             -0.2652  YZZ=              0.0000
  YYZ=              0.0000  XYZ=              0.0000
 Hexadecapole moment (field-independent basis, Debye-Ang**3):
 XXXX=          -1058.1134 YYYY=          -2341.8440 ZZZZ=            -98.1865 XXXY=             -0.0000
 XXXZ=              0.0000 YYYX=             -0.0000 YYYZ=              0.0000 ZZZX=              0.0000
 ZZZY=              0.0000 XXYY=           -547.2962 XXZZ=           -201.7706 YYZZ=           -429.6720
 XXYZ=              0.0000 YYXZ=              0.0000 ZZXY=             -0.0000
 N-N= 8.144721824875D+02 E-N=-6.535637778589D+03  KE= 2.065291341465D+03
 Symmetry A'   KE= 1.874965029376D+03
 Symmetry A"   KE= 1.903263120886D+02
 Symmetry A'   SP= 1.000000000000D+00
 Symmetry A"   SP=-3.618578198449D-14
                          Isotropic Fermi Contact Couplings
        Atom                 a.u.       MegaHertz       Gauss      10(-4) cm-1
     1  C(13)             -0.01486     -16.70795      -5.96181      -5.57317
     2  C(13)              0.44669     502.16769     179.18592     167.50511
     3  C(13)             -0.01486     -16.70796      -5.96182      -5.57318
     4  C(13)              0.05271      59.25982      21.14538      19.76695
     5  C(13)             -0.00743      -8.35322      -2.98064      -2.78634
     6  C(13)              0.05271      59.25982      21.14538      19.76695
     7  Cl(35)             0.00527       2.31072       0.82452       0.77077
     8  Cl(35)             0.01686       7.39286       2.63796       2.46599
     9  Cl(35)             0.01686       7.39286       2.63796       2.46599
    10  Cl(35)             0.00527       2.31072       0.82452       0.77077
    11  H(1)               0.00039       1.74286       0.62190       0.58136
 --------------------------------------------------------
       Center         ----  Spin Dipole Couplings  ----
                      3XX-RR        3YY-RR        3ZZ-RR
 --------------------------------------------------------
     1   Atom        0.012162      0.090556     -0.102718
     2   Atom        0.967562     -0.576727     -0.390835
     3   Atom        0.012162      0.090556     -0.102718
     4   Atom        0.023238     -0.027670      0.004432
     5   Atom        0.035162      0.018794     -0.053955
     6   Atom        0.023238     -0.027670      0.004432
     7   Atom        0.071279     -0.036084     -0.035195
     8   Atom       -0.073792      0.226555     -0.152762
     9   Atom       -0.073792      0.226555     -0.152762
    10   Atom        0.071279     -0.036084     -0.035195
    11   Atom        0.001221      0.001245     -0.002466
 --------------------------------------------------------
                        XY            XZ            YZ
 --------------------------------------------------------
     1   Atom        0.054450      0.000000      0.000000
     2   Atom        0.000000      0.000000      0.000000
     3   Atom       -0.054450      0.000000      0.000000
     4   Atom       -0.000457      0.000000      0.000000
     5   Atom        0.000000      0.000000      0.000000
     6   Atom        0.000457      0.000000      0.000000
     7   Atom        0.074970      0.000000      0.000000
     8   Atom       -0.033234      0.000000      0.000000
     9   Atom        0.033234      0.000000      0.000000
    10   Atom       -0.074970      0.000000      0.000000
    11   Atom        0.000000      0.000000      0.000000
 --------------------------------------------------------


 ---------------------------------------------------------------------------------
              Anisotropic Spin Dipole Couplings in Principal Axis System
 ---------------------------------------------------------------------------------

       Atom             a.u.   MegaHertz   Gauss  10(-4) cm-1        Axes

              Baa    -0.1027   -13.784    -4.918    -4.598  0.0000  0.0000  1.0000
     1 C(13)  Bbb    -0.0157    -2.111    -0.753    -0.704  0.8900 -0.4559 -0.0000
              Bcc     0.1184    15.895     5.672     5.302  0.4559  0.8900  0.0000
 
              Baa    -0.5767   -77.391   -27.615   -25.815 -0.0000  1.0000 -0.0000
     2 C(13)  Bbb    -0.3908   -52.446   -18.714   -17.494  0.0000  0.0000  1.0000
              Bcc     0.9676   129.838    46.329    43.309  1.0000  0.0000  0.0000
 
              Baa    -0.1027   -13.784    -4.918    -4.598  0.0000  0.0000  1.0000
     3 C(13)  Bbb    -0.0157    -2.111    -0.753    -0.704  0.8900  0.4559  0.0000
              Bcc     0.1184    15.895     5.672     5.302 -0.4559  0.8900  0.0000
 
              Baa    -0.0277    -3.714    -1.325    -1.239  0.0090  1.0000  0.0000
     4 C(13)  Bbb     0.0044     0.595     0.212     0.198  0.0000  0.0000  1.0000
              Bcc     0.0232     3.119     1.113     1.040  1.0000 -0.0090 -0.0000
 
              Baa    -0.0540    -7.240    -2.584    -2.415  0.0000  0.0000  1.0000
     5 C(13)  Bbb     0.0188     2.522     0.900     0.841 -0.0000  1.0000 -0.0000
              Bcc     0.0352     4.718     1.684     1.574  1.0000  0.0000  0.0000
 
              Baa    -0.0277    -3.714    -1.325    -1.239 -0.0090  1.0000  0.0000
     6 C(13)  Bbb     0.0044     0.595     0.212     0.198  0.0000  0.0000  1.0000
              Bcc     0.0232     3.119     1.113     1.040  1.0000  0.0090  0.0000
 
              Baa    -0.0746    -3.905    -1.393    -1.303 -0.4571  0.8894 -0.0000
     7 Cl(35) Bbb    -0.0352    -1.842    -0.657    -0.614  0.0000  0.0000  1.0000
              Bcc     0.1098     5.747     2.051     1.917  0.8894  0.4571  0.0000
 
              Baa    -0.1528    -7.995    -2.853    -2.667  0.0000  0.0000  1.0000
     8 Cl(35) Bbb    -0.0774    -4.052    -1.446    -1.352  0.9941  0.1087  0.0000
              Bcc     0.2302    12.048     4.299     4.019 -0.1087  0.9941  0.0000
 
              Baa    -0.1528    -7.995    -2.853    -2.667  0.0000  0.0000  1.0000
     9 Cl(35) Bbb    -0.0774    -4.052    -1.446    -1.352  0.9941 -0.1087 -0.0000
              Bcc     0.2302    12.048     4.299     4.019  0.1087  0.9941  0.0000
 
              Baa    -0.0746    -3.905    -1.393    -1.303  0.4571  0.8894  0.0000
    10 Cl(35) Bbb    -0.0352    -1.842    -0.657    -0.614  0.0000  0.0000  1.0000
              Bcc     0.1098     5.747     2.051     1.917  0.8894 -0.4571 -0.0000
 
              Baa    -0.0025    -1.316    -0.470    -0.439  0.0000  0.0000  1.0000
    11 H(1)   Bbb     0.0012     0.652     0.233     0.217  1.0000 -0.0000 -0.0000
              Bcc     0.0012     0.664     0.237     0.222  0.0000  1.0000  0.0000
 

 ---------------------------------------------------------------------------------

 Calling FoFJK, ICntrl=      2127 FMM=F ISym2X=1 I1Cent= 0 IOpClX= 1 NMat=1 NMatS=1 NMatT=0.
 ***** Axes restored to original set *****
 -------------------------------------------------------------------
 Center     Atomic                   Forces (Hartrees/Bohr)
 Number     Number              X              Y              Z
 -------------------------------------------------------------------
      1        6           0.032661900   -0.027573429   -0.000000000
      2        6          -0.000106426    0.003873430    0.000000000
      3        6          -0.031098759   -0.029324998   -0.000000000
      4        6          -0.028826231    0.016396510    0.000000000
      5        6           0.000002990   -0.000104355   -0.000000000
      6        6           0.027882474    0.017954425   -0.000000000
      7       17          -0.018351317   -0.011969919   -0.000000000
      8       17          -0.021202360    0.013066237    0.000000000
      9       17           0.020452985    0.014210513   -0.000000000
     10       17           0.018980780   -0.010944332   -0.000000000
     11        1          -0.000396034    0.014415919    0.000000000
 -------------------------------------------------------------------
 Cartesian Forces:  Max     0.032661900 RMS     0.015837625

 GradGradGradGradGradGradGradGradGradGradGradGradGradGradGradGradGradGrad
 Berny optimization.
 FormGI is forming the generalized inverse of G from B-inverse, IUseBI=4.
 Internal  Forces:  Max     0.024904168 RMS     0.008433974
 Search for a local minimum.
 Step number   1 out of a maximum of   57
 All quantities printed in internal units (Hartrees-Bohrs-Radians)
 Mixed Optimization -- RFO/linear search
 Second derivative matrix not updated -- first step.
 ITU=  0
     Eigenvalues ---    0.01881   0.01889   0.01932   0.01937   0.02001
     Eigenvalues ---    0.02007   0.02049   0.02345   0.16000   0.23468
     Eigenvalues ---    0.25000   0.25000   0.25000   0.25000   0.25000
     Eigenvalues ---    0.25000   0.33304   0.37600   0.37600   0.38852
     Eigenvalues ---    0.38852   0.39859   0.42152   0.42239   0.44253
     Eigenvalues ---    0.48564   0.49812
 RFO step:  Lambda=-8.48801971D-03 EMin= 1.88059928D-02
 Linear search not attempted -- first point.
 Iteration  1 RMS(Cart)=  0.01693694 RMS(Int)=  0.00007920
 Iteration  2 RMS(Cart)=  0.00007070 RMS(Int)=  0.00001238
 Iteration  3 RMS(Cart)=  0.00000001 RMS(Int)=  0.00001238
 ClnCor:  largest displacement from symmetrization is 1.88D-10 for atom    11.
 Variable       Old X    -DE/DX   Delta X   Delta X   Delta X     New X
                                 (Linear)    (Quad)   (Total)
    R1        2.59667  -0.00716   0.00000  -0.01359  -0.01357   2.58310
    R2        2.68630  -0.01290   0.00000  -0.02995  -0.02995   2.65635
    R3        3.16844   0.02490   0.00000   0.06273   0.06273   3.23117
    R4        2.59667  -0.00716   0.00000  -0.01359  -0.01357   2.58310
    R5        2.68630  -0.01290   0.00000  -0.02995  -0.02995   2.65635
    R6        3.16844   0.02490   0.00000   0.06273   0.06273   3.23117
    R7        2.65820  -0.01390   0.00000  -0.03111  -0.03113   2.62707
    R8        3.18652   0.02191   0.00000   0.05699   0.05699   3.24350
    R9        2.65820  -0.01390   0.00000  -0.03111  -0.03113   2.62707
   R10        2.08521  -0.01442   0.00000  -0.04223  -0.04223   2.04298
   R11        3.18652   0.02191   0.00000   0.05699   0.05699   3.24350
    A1        1.99941   0.00382   0.00000   0.01553   0.01554   2.01496
    A2        2.13160  -0.00226   0.00000  -0.00912  -0.00913   2.12248
    A3        2.15217  -0.00156   0.00000  -0.00641  -0.00641   2.14575
    A4        2.26334  -0.00821   0.00000  -0.02959  -0.02954   2.23380
    A5        1.99941   0.00382   0.00000   0.01553   0.01554   2.01496
    A6        2.13160  -0.00226   0.00000  -0.00912  -0.00913   2.12248
    A7        2.15217  -0.00156   0.00000  -0.00641  -0.00641   2.14575
    A8        2.08964  -0.00010   0.00000  -0.00138  -0.00140   2.08824
    A9        2.10785   0.00015   0.00000   0.00108   0.00109   2.10895
   A10        2.08570  -0.00005   0.00000   0.00029   0.00030   2.08600
   A11        2.12492   0.00077   0.00000   0.00128   0.00125   2.12617
   A12        2.07913  -0.00038   0.00000  -0.00064  -0.00062   2.07851
   A13        2.07913  -0.00038   0.00000  -0.00064  -0.00062   2.07851
   A14        2.08964  -0.00010   0.00000  -0.00138  -0.00140   2.08824
   A15        2.10785   0.00015   0.00000   0.00108   0.00109   2.10895
   A16        2.08570  -0.00005   0.00000   0.00029   0.00030   2.08600
    D1        0.00000  -0.00000   0.00000  -0.00000   0.00000   0.00000
    D2        3.14159   0.00000   0.00000   0.00000   0.00000   3.14159
    D3        0.00000   0.00000   0.00000   0.00000   0.00000   0.00000
    D4        3.14159   0.00000   0.00000   0.00000   0.00000   3.14159
    D5        3.14159  -0.00000   0.00000   0.00000   0.00000   3.14159
    D6        0.00000  -0.00000   0.00000   0.00000   0.00000   0.00000
    D7        0.00000   0.00000   0.00000  -0.00000   0.00000   0.00000
    D8        3.14159  -0.00000   0.00000  -0.00000   0.00000   3.14159
    D9        0.00000   0.00000   0.00000   0.00000   0.00000   0.00000
   D10        3.14159  -0.00000   0.00000   0.00000   0.00000   3.14159
   D11        3.14159   0.00000   0.00000   0.00000   0.00000   3.14159
   D12        0.00000   0.00000   0.00000   0.00000   0.00000   0.00000
   D13        0.00000   0.00000   0.00000  -0.00000   0.00000   0.00000
   D14        3.14159  -0.00000   0.00000  -0.00000   0.00000   3.14159
   D15        3.14159   0.00000   0.00000  -0.00000   0.00000   3.14159
   D16        0.00000   0.00000   0.00000   0.00000   0.00000   0.00000
   D17        0.00000  -0.00000   0.00000  -0.00000   0.00000   0.00000
   D18        3.14159  -0.00000   0.00000  -0.00000   0.00000   3.14159
   D19        3.14159   0.00000   0.00000  -0.00000   0.00000   3.14159
   D20        0.00000  -0.00000   0.00000  -0.00000   0.00000   0.00000
         Item               Value     Threshold  Converged?
 Maximum Force            0.024904     0.000450     NO 
 RMS     Force            0.008434     0.000300     NO 
 Maximum Displacement     0.065120     0.001800     NO 
 RMS     Displacement     0.016944     0.001200     NO 
 Predicted change in Energy=-4.336702D-03
 GradGradGradGradGradGradGradGradGradGradGradGradGradGradGradGradGradGrad

                          Input orientation:                          
 ---------------------------------------------------------------------
 Center     Atomic      Atomic             Coordinates (Angstroms)
 Number     Number       Type             X           Y           Z
 ---------------------------------------------------------------------
      1          6           0       -3.218546    0.137315    0.000000
      2          6           0       -2.006956    0.770177    0.000000
      3          6           0       -0.762449    0.204787    0.000000
      4          6           0       -0.737528   -1.200671    0.000000
      5          6           0       -1.933338   -1.909655    0.000000
      6          6           0       -3.166268   -1.267392    0.000000
      7         17           0       -4.606322   -2.201327    0.000000
      8         17           0       -4.687075    1.013123    0.000000
      9         17           0        0.655783    1.159898    0.000000
     10         17           0        0.751628   -2.054137    0.000000
     11          1           0       -1.903650   -2.990348    0.000000
 ---------------------------------------------------------------------
                    Distance matrix (angstroms):
                    1          2          3          4          5
     1  C    0.000000
     2  C    1.366918   0.000000
     3  C    2.457024   1.366918   0.000000
     4  C    2.818804   2.344289   1.405679   0.000000
     5  C    2.416990   2.680843   2.416990   1.390187   0.000000
     6  C    1.405679   2.344289   2.818804   2.429657   1.390187
     7  Cl   2.719405   3.947979   4.534837   3.996108   2.688851
     8  Cl   1.709859   2.691108   4.007007   4.527672   4.015682
     9  Cl   4.007007   2.691108   1.709859   2.741095   4.015682
    10  Cl   4.534837   3.947979   2.719405   1.716388   2.688851
    11  H    3.392819   3.761943   3.392819   2.136067   1.081101
                    6          7          8          9         10
     6  C    0.000000
     7  Cl   1.716388   0.000000
     8  Cl   2.741095   3.215464   0.000000
     9  Cl   4.527672   6.244004   5.344874   0.000000
    10  Cl   3.996108   5.359972   6.244004   3.215464   0.000000
    11  H    2.136067   2.815491   4.875986   4.875986   2.815491
                   11
    11  H    0.000000
 Stoichiometry    C6HCl4(2)
 Framework group  CS[SG(C6HCl4)]
 Deg. of freedom    19
 Full point group                 CS      NOp   2
 Largest Abelian subgroup         CS      NOp   2
 Largest concise Abelian subgroup C1      NOp   1
                         Standard orientation:                         
 ---------------------------------------------------------------------
 Center     Atomic      Atomic             Coordinates (Angstroms)
 Number     Number       Type             X           Y           Z
 ---------------------------------------------------------------------
      1          6           0       -0.723557    1.228512    0.000000
      2          6           0       -1.322909    0.000000    0.000000
      3          6           0       -0.723557   -1.228512    0.000000
      4          6           0        0.682055   -1.214829    0.000000
      5          6           0        1.357933   -0.000000    0.000000
      6          6           0        0.682055    1.214828    0.000000
      7         17           0        1.576093    2.679986    0.000000
      8         17           0       -1.639362    2.672437    0.000000
      9         17           0       -1.639362   -2.672437    0.000000
     10         17           0        1.576093   -2.679986    0.000000
     11          1           0        2.439034   -0.000000    0.000000
 ---------------------------------------------------------------------
 Rotational constants (GHZ):           1.1630961           0.4708006           0.3351414
 Standard basis: 6-311++G(d,p) (5D, 7F)
 There are   200 symmetry adapted cartesian basis functions of A'  symmetry.
 There are    69 symmetry adapted cartesian basis functions of A"  symmetry.
 There are   190 symmetry adapted basis functions of A'  symmetry.
 There are    69 symmetry adapted basis functions of A"  symmetry.
   259 basis functions,   437 primitive gaussians,   269 cartesian basis functions
    53 alpha electrons       52 beta electrons
       nuclear repulsion energy       811.7792059555 Hartrees.
 NAtoms=   11 NActive=   11 NUniq=   11 SFac= 1.00D+00 NAtFMM=   60 NAOKFM=F Big=F
 Integral buffers will be    131072 words long.
 Raffenetti 2 integral format.
 Two-electron integral symmetry is turned on.
 One-electron integrals computed using PRISM.
 NBasis=   259 RedAO= T EigKep=  1.34D-06  NBF=   190    69
 NBsUse=   258 1.00D-06 EigRej=  5.86D-07 NBFU=   189    69
 Initial guess from the checkpoint file:  "frequency_chks/12_45ClBzNeutralRadical_Freq.chk"
 B after Tr=     0.000000   -0.000000    0.000000
         Rot=    1.000000    0.000000   -0.000000    0.000000 Ang=   0.00 deg.
 Initial guess orbital symmetries:
 Alpha Orbitals:
       Occupied  (A') (A') (A') (A') (A') (A') (A') (A') (A') (A')
                 (A') (A') (A') (A') (A') (A') (A') (A') (A") (A")
                 (A') (A') (A") (A") (A') (A') (A') (A') (A') (A')
                 (A') (A') (A') (A') (A') (A') (A') (A') (A') (A")
                 (A') (A') (A") (A") (A") (A') (A') (A') (A') (A")
                 (A') (A") (A")
       Virtual   (A") (A") (A') (A') (A') (A') (A') (A') (A") (A')
                 (A') (A") (A") (A') (A') (A') (A') (A") (A') (A")
                 (A') (A") (A') (A') (A') (A") (A') (A") (A") (A')
                 (A') (A') (A') (A") (A') (A") (A') (A') (A') (A')
                 (A') (A') (A') (A') (A') (A') (A') (A') (A') (A')
                 (A') (A') (A') (A') (A') (A") (A") (A') (A') (A")
                 (A') (A") (A') (A') (A') (A") (A') (A') (A") (A")
                 (A') (A") (A") (A') (A') (A') (A") (A') (A') (A')
                 (A") (A') (A") (A') (A') (A') (A') (A') (A") (A')
                 (A") (A") (A") (A') (A") (A') (A') (A') (A") (A')
                 (A') (A') (A') (A") (A') (A') (A') (A') (A") (A')
                 (A') (A') (A') (A") (A') (A') (A") (A') (A") (A")
                 (A') (A') (A') (A') (A') (A") (A') (A') (A') (A")
                 (A') (A") (A') (A") (A") (A') (A') (A") (A') (A')
                 (A') (A") (A") (A') (A") (A") (A') (A") (A') (A')
                 (A') (A') (A') (A') (A') (A') (A') (A') (A") (A')
                 (A') (A") (A") (A") (A") (A') (A') (A") (A') (A')
                 (A') (A') (A') (A') (A') (A') (A') (A') (A') (A')
                 (A') (A') (A') (A') (A') (A') (A') (A') (A') (A")
                 (A") (A") (A") (A') (A') (A') (A') (A') (A') (A')
                 (A') (A') (A') (A') (A')
 Beta  Orbitals:
       Occupied  (A') (A') (A') (A') (A') (A') (A') (A') (A') (A')
                 (A') (A') (A') (A') (A') (A') (A') (A') (A") (A")
                 (A') (A') (A") (A") (A') (A') (A') (A') (A') (A')
                 (A') (A') (A') (A') (A') (A') (A') (A') (A') (A")
                 (A') (A') (A") (A") (A") (A') (A') (A') (A') (A")
                 (A") (A")
       Virtual   (A') (A") (A") (A') (A') (A') (A') (A') (A') (A")
                 (A') (A") (A') (A") (A') (A') (A') (A') (A") (A')
                 (A") (A') (A") (A') (A') (A') (A") (A') (A") (A")
                 (A') (A') (A') (A') (A") (A') (A") (A') (A') (A')
                 (A') (A') (A') (A') (A') (A') (A') (A') (A') (A')
                 (A') (A') (A') (A') (A') (A') (A") (A") (A') (A')
                 (A") (A') (A") (A') (A') (A') (A') (A") (A') (A')
                 (A") (A") (A") (A") (A') (A') (A") (A') (A') (A')
                 (A') (A") (A') (A") (A') (A') (A') (A') (A') (A")
                 (A') (A") (A") (A") (A") (A') (A') (A') (A') (A")
                 (A') (A') (A') (A') (A") (A') (A') (A') (A') (A")
                 (A') (A') (A') (A') (A") (A') (A') (A') (A") (A")
                 (A") (A') (A') (A') (A') (A') (A") (A') (A') (A")
                 (A') (A") (A') (A') (A") (A') (A") (A') (A") (A')
                 (A') (A') (A") (A") (A') (A") (A") (A') (A") (A')
                 (A') (A') (A') (A') (A') (A') (A') (A') (A') (A")
                 (A') (A') (A") (A") (A") (A") (A') (A') (A") (A')
                 (A') (A') (A') (A') (A') (A') (A') (A') (A') (A')
                 (A') (A') (A') (A') (A') (A') (A') (A') (A') (A')
                 (A") (A") (A") (A") (A') (A') (A') (A') (A') (A')
                 (A') (A') (A') (A') (A') (A')
 Initial guess <Sx>= 0.0000 <Sy>= 0.0000 <Sz>= 0.5000 <S**2>= 0.7635 S= 0.5067
 ExpMin= 3.60D-02 ExpMax= 1.06D+05 ExpMxC= 3.62D+03 IAcc=3 IRadAn=         5 AccDes= 0.00D+00
 Harris functional with IExCor= 1009 and IRadAn=       5 diagonalized for initial guess.
 HarFok:  IExCor= 1009 AccDes= 0.00D+00 IRadAn=         5 IDoV= 1 UseB2=F ITyADJ=14
 ICtDFT=  3500011 ScaDFX=  1.000000  1.000000  1.000000  1.000000
 FoFCou: FMM=F IPFlag=           0 FMFlag=      100000 FMFlg1=           0
         NFxFlg=           0 DoJE=T BraDBF=F KetDBF=T FulRan=T
         wScrn=  0.000000 ICntrl=       500 IOpCl=  0 I1Cent=   200000004 NGrid=           0
         NMat0=    1 NMatS0=      1 NMatT0=    0 NMatD0=    1 NMtDS0=    0 NMtDT0=    0
 Petite list used in FoFCou.
 Keep R1 and R2 ints in memory in symmetry-blocked form, NReq=892001928.
 Requested convergence on RMS density matrix=1.00D-08 within 128 cycles.
 Requested convergence on MAX density matrix=1.00D-06.
 Requested convergence on             energy=1.00D-06.
 No special actions if energy rises.
 SCF Done:  E(UM062X) =  -2069.89932053     A.U. after   17 cycles
            NFock= 17  Conv=0.36D-08     -V/T= 2.0022
 <Sx>= 0.0000 <Sy>= 0.0000 <Sz>= 0.5000 <S**2>= 0.7631 S= 0.5065
 <L.S>=  0.00000000000    
 Annihilation of the first spin contaminant:
 S**2 before annihilation     0.7631,   after     0.7501
 Calling FoFJK, ICntrl=      2127 FMM=F ISym2X=1 I1Cent= 0 IOpClX= 1 NMat=1 NMatS=1 NMatT=0.
 ***** Axes restored to original set *****
 -------------------------------------------------------------------
 Center     Atomic                   Forces (Hartrees/Bohr)
 Number     Number              X              Y              Z
 -------------------------------------------------------------------
      1        6           0.008096215   -0.009315682   -0.000000000
      2        6          -0.000148249    0.005396631   -0.000000000
      3        6          -0.007572548   -0.009746065   -0.000000000
      4        6          -0.004982769    0.007125688    0.000000000
      5        6           0.000077080   -0.002804895   -0.000000000
      6        6           0.004584015    0.007388546   -0.000000000
      7       17          -0.004347789   -0.003222913   -0.000000000
      8       17          -0.005719541    0.004189658    0.000000000
      9       17           0.005480886    0.004497342   -0.000000000
     10       17           0.004518176   -0.002979355   -0.000000000
     11        1           0.000014523   -0.000528956   -0.000000000
 -------------------------------------------------------------------
 Cartesian Forces:  Max     0.009746065 RMS     0.004445902

 GradGradGradGradGradGradGradGradGradGradGradGradGradGradGradGradGradGrad
 Berny optimization.
 Using GEDIIS/GDIIS optimizer.
 FormGI is forming the generalized inverse of G from B-inverse, IUseBI=4.
 Internal  Forces:  Max     0.007058272 RMS     0.002135591
 Search for a local minimum.
 Step number   2 out of a maximum of   57
 All quantities printed in internal units (Hartrees-Bohrs-Radians)
 Mixed Optimization -- RFO/linear search
 Update second derivatives using D2CorX and points    1    2
 DE= -5.14D-03 DEPred=-4.34D-03 R= 1.18D+00
 TightC=F SS=  1.41D+00  RLast= 1.48D-01 DXNew= 5.0454D-01 4.4358D-01
 Trust test= 1.18D+00 RLast= 1.48D-01 DXMaxT set to 4.44D-01
 ITU=  1  0
 Use linear search instead of GDIIS.
     Eigenvalues ---    0.01881   0.01889   0.01932   0.01937   0.02001
     Eigenvalues ---    0.02006   0.02049   0.02340   0.16000   0.21805
     Eigenvalues ---    0.24088   0.25000   0.25000   0.25000   0.25000
     Eigenvalues ---    0.25062   0.31917   0.34256   0.37600   0.38142
     Eigenvalues ---    0.38852   0.39802   0.42062   0.43130   0.44250
     Eigenvalues ---    0.49514   0.49783
 RFO step:  Lambda=-3.45789070D-04 EMin= 1.88059252D-02
 Quartic linear search produced a step of  0.28946.
 Iteration  1 RMS(Cart)=  0.00609827 RMS(Int)=  0.00003198
 Iteration  2 RMS(Cart)=  0.00004423 RMS(Int)=  0.00001003
 Iteration  3 RMS(Cart)=  0.00000000 RMS(Int)=  0.00001003
 ClnCor:  largest displacement from symmetrization is 7.18D-10 for atom    11.
 Variable       Old X    -DE/DX   Delta X   Delta X   Delta X     New X
                                 (Linear)    (Quad)   (Total)
    R1        2.58310  -0.00027  -0.00393   0.00254  -0.00138   2.58172
    R2        2.65635  -0.00250  -0.00867  -0.00021  -0.00888   2.64747
    R3        3.23117   0.00706   0.01816   0.00791   0.02607   3.25723
    R4        2.58310  -0.00027  -0.00393   0.00254  -0.00138   2.58172
    R5        2.65635  -0.00250  -0.00867  -0.00021  -0.00888   2.64747
    R6        3.23117   0.00706   0.01816   0.00791   0.02607   3.25723
    R7        2.62707  -0.00004  -0.00901   0.00774  -0.00128   2.62579
    R8        3.24350   0.00540   0.01649   0.00443   0.02093   3.26443
    R9        2.62707  -0.00004  -0.00901   0.00774  -0.00128   2.62579
   R10        2.04298   0.00053  -0.01222   0.01246   0.00024   2.04322
   R11        3.24350   0.00540   0.01649   0.00443   0.02093   3.26443
    A1        2.01496   0.00219   0.00450   0.00747   0.01198   2.02694
    A2        2.12248  -0.00218  -0.00264  -0.00896  -0.01161   2.11086
    A3        2.14575  -0.00002  -0.00186   0.00150  -0.00037   2.14539
    A4        2.23380  -0.00373  -0.00855  -0.01230  -0.02082   2.21299
    A5        2.01496   0.00219   0.00450   0.00747   0.01198   2.02694
    A6        2.12248  -0.00218  -0.00264  -0.00896  -0.01161   2.11086
    A7        2.14575  -0.00002  -0.00186   0.00150  -0.00037   2.14539
    A8        2.08824   0.00078  -0.00040   0.00491   0.00449   2.09273
    A9        2.10895   0.00016   0.00032   0.00027   0.00060   2.10954
   A10        2.08600  -0.00094   0.00009  -0.00518  -0.00509   2.08091
   A11        2.12617  -0.00223   0.00036  -0.01245  -0.01212   2.11405
   A12        2.07851   0.00111  -0.00018   0.00623   0.00606   2.08457
   A13        2.07851   0.00111  -0.00018   0.00623   0.00606   2.08457
   A14        2.08824   0.00078  -0.00040   0.00491   0.00449   2.09273
   A15        2.10895   0.00016   0.00032   0.00027   0.00060   2.10954
   A16        2.08600  -0.00094   0.00009  -0.00518  -0.00509   2.08091
    D1        0.00000  -0.00000   0.00000  -0.00000   0.00000   0.00000
    D2        3.14159  -0.00000   0.00000  -0.00000   0.00000   3.14159
    D3        0.00000   0.00000   0.00000   0.00000   0.00000   0.00000
    D4        3.14159  -0.00000   0.00000  -0.00000   0.00000   3.14159
    D5        3.14159   0.00000   0.00000   0.00000   0.00000   3.14159
    D6        0.00000  -0.00000   0.00000   0.00000   0.00000   0.00000
    D7        0.00000  -0.00000   0.00000  -0.00000   0.00000   0.00000
    D8        3.14159   0.00000   0.00000   0.00000   0.00000   3.14159
    D9        0.00000   0.00000   0.00000   0.00000   0.00000   0.00000
   D10        3.14159   0.00000   0.00000   0.00000   0.00000   3.14159
   D11        3.14159  -0.00000   0.00000  -0.00000   0.00000   3.14159
   D12        0.00000   0.00000   0.00000   0.00000   0.00000   0.00000
   D13        0.00000  -0.00000   0.00000  -0.00000   0.00000   0.00000
   D14        3.14159   0.00000   0.00000   0.00000   0.00000   3.14159
   D15        3.14159  -0.00000   0.00000  -0.00000   0.00000   3.14159
   D16        0.00000  -0.00000   0.00000  -0.00000   0.00000   0.00000
   D17        0.00000  -0.00000   0.00000  -0.00000   0.00000   0.00000
   D18        3.14159   0.00000   0.00000   0.00000   0.00000   3.14159
   D19        3.14159  -0.00000   0.00000  -0.00000   0.00000   3.14159
   D20        0.00000   0.00000   0.00000   0.00000   0.00000   0.00000
         Item               Value     Threshold  Converged?
 Maximum Force            0.007058     0.000450     NO 
 RMS     Force            0.002136     0.000300     NO 
 Maximum Displacement     0.017302     0.001800     NO 
 RMS     Displacement     0.006098     0.001200     NO 
 Predicted change in Energy=-4.266686D-04
 GradGradGradGradGradGradGradGradGradGradGradGradGradGradGradGradGradGrad

                          Input orientation:                          
 ---------------------------------------------------------------------
 Center     Atomic      Atomic             Coordinates (Angstroms)
 Number     Number       Type             X           Y           Z
 ---------------------------------------------------------------------
      1          6           0       -3.211503    0.134238    0.000000
      2          6           0       -2.007208    0.779333    0.000000
      3          6           0       -0.769312    0.201328    0.000000
      4          6           0       -0.742275   -1.199391    0.000000
      5          6           0       -1.933184   -1.915258    0.000000
      6          6           0       -3.161599   -1.265853    0.000000
      7         17           0       -4.611858   -2.204405    0.000000
      8         17           0       -4.690814    1.018895    0.000000
      9         17           0        0.659199    1.165867    0.000000
     10         17           0        0.757325   -2.056907    0.000000
     11          1           0       -1.903492   -2.996077    0.000000
 ---------------------------------------------------------------------
                    Distance matrix (angstroms):
                    1          2          3          4          5
     1  C    0.000000
     2  C    1.366190   0.000000
     3  C    2.443112   1.366190   0.000000
     4  C    2.806360   2.348490   1.400981   0.000000
     5  C    2.415478   2.695608   2.415478   1.389507   0.000000
     6  C    1.400981   2.348490   2.806360   2.420237   1.389507
     7  Cl   2.725847   3.960668   4.533509   3.997965   2.694234
     8  Cl   1.723653   2.694278   4.005820   4.528991   4.026634
     9  Cl   4.005820   2.694278   1.723653   2.749286   4.026634
    10  Cl   4.533510   3.960668   2.725847   1.727463   2.694234
    11  H    3.392605   3.776834   3.392605   2.139277   1.081227
                    6          7          8          9         10
     6  C    0.000000
     7  Cl   1.727463   0.000000
     8  Cl   2.749286   3.224267   0.000000
     9  Cl   4.528991   6.256418   5.352031   0.000000
    10  Cl   3.997965   5.371208   6.256418   3.224267   0.000000
    11  H    2.139277   2.821700   4.887654   4.887654   2.821700
                   11
    11  H    0.000000
 Stoichiometry    C6HCl4(2)
 Framework group  CS[SG(C6HCl4)]
 Deg. of freedom    19
 Full point group                 CS      NOp   2
 Largest Abelian subgroup         CS      NOp   2
 Largest concise Abelian subgroup C1      NOp   1
                         Standard orientation:                         
 ---------------------------------------------------------------------
 Center     Atomic      Atomic             Coordinates (Angstroms)
 Number     Number       Type             X           Y           Z
 ---------------------------------------------------------------------
      1          6           0       -0.719398    1.221556    0.000000
      2          6           0       -1.331178    0.000000    0.000000
      3          6           0       -0.719398   -1.221556    0.000000
      4          6           0        0.681536   -1.210118    0.000000
      5          6           0        1.364430    0.000000    0.000000
      6          6           0        0.681536    1.210118    0.000000
      7         17           0        1.579908    2.685604    0.000000
      8         17           0       -1.644344    2.676016    0.000000
      9         17           0       -1.644344   -2.676016    0.000000
     10         17           0        1.579908   -2.685604    0.000000
     11          1           0        2.445656    0.000000    0.000000
 ---------------------------------------------------------------------
 Rotational constants (GHZ):           1.1568840           0.4695916           0.3340124
 Standard basis: 6-311++G(d,p) (5D, 7F)
 There are   200 symmetry adapted cartesian basis functions of A'  symmetry.
 There are    69 symmetry adapted cartesian basis functions of A"  symmetry.
 There are   190 symmetry adapted basis functions of A'  symmetry.
 There are    69 symmetry adapted basis functions of A"  symmetry.
   259 basis functions,   437 primitive gaussians,   269 cartesian basis functions
    53 alpha electrons       52 beta electrons
       nuclear repulsion energy       810.0768297640 Hartrees.
 NAtoms=   11 NActive=   11 NUniq=   11 SFac= 1.00D+00 NAtFMM=   60 NAOKFM=F Big=F
 Integral buffers will be    131072 words long.
 Raffenetti 2 integral format.
 Two-electron integral symmetry is turned on.
 One-electron integrals computed using PRISM.
 NBasis=   259 RedAO= T EigKep=  1.33D-06  NBF=   190    69
 NBsUse=   258 1.00D-06 EigRej=  5.96D-07 NBFU=   189    69
 Initial guess from the checkpoint file:  "frequency_chks/12_45ClBzNeutralRadical_Freq.chk"
 B after Tr=     0.000000   -0.000000   -0.000000
         Rot=    1.000000    0.000000    0.000000   -0.000000 Ang=   0.00 deg.
 Initial guess orbital symmetries:
 Alpha Orbitals:
       Occupied  (A') (A') (A') (A') (A') (A') (A') (A') (A') (A')
                 (A') (A') (A') (A') (A') (A') (A') (A') (A") (A")
                 (A') (A') (A") (A") (A') (A') (A') (A') (A') (A')
                 (A') (A') (A') (A') (A') (A') (A') (A') (A") (A')
                 (A') (A') (A") (A") (A") (A') (A') (A') (A') (A")
                 (A') (A") (A")
       Virtual   (A") (A") (A') (A') (A') (A') (A') (A') (A") (A')
                 (A') (A") (A') (A") (A') (A') (A') (A') (A") (A")
                 (A') (A") (A') (A') (A') (A") (A') (A") (A") (A')
                 (A') (A') (A') (A") (A') (A") (A') (A') (A') (A')
                 (A') (A') (A') (A') (A') (A') (A') (A') (A') (A')
                 (A') (A') (A') (A') (A') (A") (A") (A') (A') (A')
                 (A") (A') (A") (A') (A') (A") (A') (A') (A") (A")
                 (A') (A") (A") (A') (A') (A') (A") (A') (A') (A')
                 (A") (A') (A") (A') (A') (A') (A') (A') (A') (A")
                 (A") (A") (A") (A') (A") (A') (A') (A') (A') (A")
                 (A') (A') (A') (A") (A') (A') (A') (A') (A") (A')
                 (A') (A') (A') (A") (A') (A') (A") (A') (A") (A")
                 (A') (A') (A') (A') (A') (A") (A') (A') (A') (A")
                 (A') (A") (A') (A") (A") (A') (A') (A") (A') (A')
                 (A') (A") (A") (A') (A") (A") (A') (A") (A') (A')
                 (A') (A') (A') (A') (A') (A') (A') (A") (A') (A')
                 (A') (A") (A") (A") (A") (A') (A') (A") (A') (A')
                 (A') (A') (A') (A') (A') (A') (A') (A') (A') (A')
                 (A') (A') (A') (A') (A') (A') (A') (A') (A') (A")
                 (A") (A") (A") (A') (A') (A') (A') (A') (A') (A')
                 (A') (A') (A') (A') (A')
 Beta  Orbitals:
       Occupied  (A') (A') (A') (A') (A') (A') (A') (A') (A') (A')
                 (A') (A') (A') (A') (A') (A') (A') (A') (A") (A")
                 (A') (A') (A") (A") (A') (A') (A') (A') (A') (A')
                 (A') (A') (A') (A') (A') (A') (A') (A') (A') (A")
                 (A') (A') (A") (A") (A") (A') (A') (A') (A') (A")
                 (A") (A")
       Virtual   (A') (A") (A") (A') (A') (A') (A') (A') (A') (A")
                 (A') (A') (A") (A") (A') (A') (A') (A') (A') (A")
                 (A") (A') (A") (A') (A') (A') (A") (A') (A") (A')
                 (A") (A') (A') (A') (A') (A") (A") (A') (A') (A')
                 (A') (A') (A') (A') (A') (A') (A') (A') (A') (A')
                 (A') (A') (A') (A') (A') (A') (A") (A") (A') (A')
                 (A") (A') (A') (A") (A') (A') (A') (A") (A') (A')
                 (A") (A") (A") (A") (A') (A') (A") (A') (A') (A')
                 (A') (A") (A') (A") (A') (A') (A') (A') (A') (A')
                 (A") (A") (A") (A") (A') (A") (A') (A') (A') (A')
                 (A") (A') (A') (A') (A") (A') (A') (A') (A') (A")
                 (A') (A') (A') (A') (A") (A') (A') (A") (A') (A")
                 (A") (A') (A') (A') (A') (A') (A") (A') (A') (A")
                 (A') (A') (A") (A') (A") (A") (A') (A') (A") (A')
                 (A') (A') (A") (A") (A') (A") (A") (A") (A') (A')
                 (A') (A') (A') (A') (A') (A') (A') (A') (A") (A')
                 (A') (A') (A") (A") (A") (A") (A') (A') (A") (A')
                 (A') (A') (A') (A') (A') (A') (A') (A') (A') (A')
                 (A') (A') (A') (A') (A') (A') (A') (A') (A') (A')
                 (A") (A") (A") (A") (A') (A') (A') (A') (A') (A')
                 (A') (A') (A') (A') (A') (A')
 Initial guess <Sx>= 0.0000 <Sy>= 0.0000 <Sz>= 0.5000 <S**2>= 0.7632 S= 0.5066
 Keep R1 and R2 ints in memory in symmetry-blocked form, NReq=892001928.
 Requested convergence on RMS density matrix=1.00D-08 within 128 cycles.
 Requested convergence on MAX density matrix=1.00D-06.
 Requested convergence on             energy=1.00D-06.
 No special actions if energy rises.
 SCF Done:  E(UM062X) =  -2069.89980194     A.U. after   17 cycles
            NFock= 17  Conv=0.55D-08     -V/T= 2.0023
 <Sx>= 0.0000 <Sy>= 0.0000 <Sz>= 0.5000 <S**2>= 0.7632 S= 0.5066
 <L.S>=  0.00000000000    
 Annihilation of the first spin contaminant:
 S**2 before annihilation     0.7632,   after     0.7501
 Calling FoFJK, ICntrl=      2127 FMM=F ISym2X=1 I1Cent= 0 IOpClX= 1 NMat=1 NMatS=1 NMatT=0.
 ***** Axes restored to original set *****
 -------------------------------------------------------------------
 Center     Atomic                   Forces (Hartrees/Bohr)
 Number     Number              X              Y              Z
 -------------------------------------------------------------------
      1        6           0.000211432   -0.001968878   -0.000000000
      2        6          -0.000047720    0.001737406   -0.000000000
      3        6          -0.000103022   -0.001977511   -0.000000000
      4        6           0.000397485    0.001399787   -0.000000000
      5        6           0.000032304   -0.001175668   -0.000000000
      6        6          -0.000473745    0.001375852    0.000000000
      7       17          -0.000079699   -0.000069780   -0.000000000
      8       17          -0.000488716    0.000472315    0.000000000
      9       17           0.000462045    0.000498427   -0.000000000
     10       17           0.000083412   -0.000065297   -0.000000000
     11        1           0.000006226   -0.000226653   -0.000000000
 -------------------------------------------------------------------
 Cartesian Forces:  Max     0.001977511 RMS     0.000727781

 GradGradGradGradGradGradGradGradGradGradGradGradGradGradGradGradGradGrad
 Berny optimization.
 Using GEDIIS/GDIIS optimizer.
 FormGI is forming the generalized inverse of G from B-inverse, IUseBI=4.
 Internal  Forces:  Max     0.000754527 RMS     0.000344533
 Search for a local minimum.
 Step number   3 out of a maximum of   57
 All quantities printed in internal units (Hartrees-Bohrs-Radians)
 Mixed Optimization -- En-DIIS/RFO-DIIS
 Update second derivatives using D2CorX and points    1    2    3
 DE= -4.81D-04 DEPred=-4.27D-04 R= 1.13D+00
 TightC=F SS=  1.41D+00  RLast= 6.09D-02 DXNew= 7.4600D-01 1.8256D-01
 Trust test= 1.13D+00 RLast= 6.09D-02 DXMaxT set to 4.44D-01
 ITU=  1  1  0
 Use linear search instead of GDIIS.
     Eigenvalues ---    0.01880   0.01888   0.01932   0.01936   0.02001
     Eigenvalues ---    0.02005   0.02047   0.02337   0.16000   0.18997
     Eigenvalues ---    0.24047   0.25000   0.25000   0.25000   0.25008
     Eigenvalues ---    0.25063   0.31860   0.34308   0.37600   0.38126
     Eigenvalues ---    0.38852   0.39771   0.42040   0.43298   0.44243
     Eigenvalues ---    0.49764   0.50489
 RFO step:  Lambda=-9.73351716D-06 EMin= 1.88033245D-02
 Quartic linear search produced a step of  0.12159.
 Iteration  1 RMS(Cart)=  0.00113261 RMS(Int)=  0.00000167
 Iteration  2 RMS(Cart)=  0.00000218 RMS(Int)=  0.00000104
 Iteration  3 RMS(Cart)=  0.00000000 RMS(Int)=  0.00000104
 ClnCor:  largest displacement from symmetrization is 4.71D-10 for atom    11.
 Variable       Old X    -DE/DX   Delta X   Delta X   Delta X     New X
                                 (Linear)    (Quad)   (Total)
    R1        2.58172   0.00072  -0.00017   0.00158   0.00141   2.58314
    R2        2.64747  -0.00062  -0.00108  -0.00106  -0.00214   2.64533
    R3        3.25723   0.00066   0.00317  -0.00002   0.00315   3.26038
    R4        2.58172   0.00072  -0.00017   0.00158   0.00141   2.58314
    R5        2.64747  -0.00062  -0.00108  -0.00106  -0.00214   2.64533
    R6        3.25723   0.00066   0.00317  -0.00002   0.00315   3.26038
    R7        2.62579   0.00075  -0.00016   0.00173   0.00157   2.62736
    R8        3.26443   0.00010   0.00254  -0.00116   0.00138   3.26581
    R9        2.62579   0.00075  -0.00016   0.00173   0.00157   2.62736
   R10        2.04322   0.00023   0.00003   0.00033   0.00036   2.04358
   R11        3.26443   0.00010   0.00254  -0.00116   0.00138   3.26581
    A1        2.02694   0.00041   0.00146   0.00085   0.00231   2.02924
    A2        2.11086  -0.00046  -0.00141  -0.00102  -0.00243   2.10843
    A3        2.14539   0.00005  -0.00004   0.00017   0.00013   2.14551
    A4        2.21299  -0.00072  -0.00253  -0.00150  -0.00403   2.20895
    A5        2.02694   0.00041   0.00146   0.00085   0.00231   2.02924
    A6        2.11086  -0.00046  -0.00141  -0.00102  -0.00243   2.10843
    A7        2.14539   0.00005  -0.00004   0.00017   0.00013   2.14551
[...]
      7       17           0.000179288    0.000082638    0.000000000
      8       17           0.000068757    0.000033460    0.000000000
      9       17          -0.000070491    0.000029635    0.000000000
     10       17          -0.000183554    0.000072671    0.000000000
     11        1           0.000001028   -0.000037408   -0.000000000
 -------------------------------------------------------------------
 Cartesian Forces:  Max     0.000370052 RMS     0.000115421
 FormGI is forming the generalized inverse of G from B-inverse, IUseBI=4.

 GradGradGradGradGradGradGradGradGradGradGradGradGradGradGradGradGradGrad
 Berny optimization.
 Internal  Forces:  Max     0.000195433 RMS     0.000067257
 Search for a local minimum.
 Step number   1 out of a maximum of    2
 All quantities printed in internal units (Hartrees-Bohrs-Radians)
 Second derivative matrix not updated -- analytic derivatives used.
 ITU=  0
     Eigenvalues ---    0.01532   0.01789   0.01814   0.02328   0.03009
     Eigenvalues ---    0.03101   0.03761   0.03768   0.11528   0.14766
     Eigenvalues ---    0.15562   0.17145   0.17316   0.18358   0.18926
     Eigenvalues ---    0.23741   0.24587   0.27116   0.28070   0.30297
     Eigenvalues ---    0.32302   0.37175   0.43380   0.45691   0.48267
     Eigenvalues ---    0.49797   0.52801
 Angle between quadratic step and forces=  17.48 degrees.
 Linear search not attempted -- first point.
 Iteration  1 RMS(Cart)=  0.00033609 RMS(Int)=  0.00000008
 Iteration  2 RMS(Cart)=  0.00000012 RMS(Int)=  0.00000002
 ClnCor:  largest displacement from symmetrization is 4.21D-10 for atom    10.
 Variable       Old X    -DE/DX   Delta X   Delta X   Delta X     New X
                                 (Linear)    (Quad)   (Total)
    R1        2.58314   0.00011   0.00000   0.00032   0.00032   2.58346
    R2        2.64533   0.00000   0.00000  -0.00011  -0.00011   2.64522
    R3        3.26038  -0.00004   0.00000  -0.00004  -0.00004   3.26034
    R4        2.58314   0.00011   0.00000   0.00032   0.00032   2.58346
    R5        2.64533   0.00000   0.00000  -0.00011  -0.00011   2.64522
    R6        3.26038  -0.00004   0.00000  -0.00004  -0.00004   3.26034
    R7        2.62736   0.00005   0.00000   0.00016   0.00016   2.62752
    R8        3.26581  -0.00020   0.00000  -0.00078  -0.00078   3.26503
    R9        2.62736   0.00005   0.00000   0.00016   0.00016   2.62752
   R10        2.04358   0.00004   0.00000   0.00009   0.00009   2.04368
   R11        3.26581  -0.00020   0.00000  -0.00078  -0.00078   3.26503
    A1        2.02924   0.00008   0.00000   0.00056   0.00056   2.02980
    A2        2.10843  -0.00015   0.00000  -0.00084  -0.00084   2.10759
    A3        2.14551   0.00006   0.00000   0.00027   0.00027   2.14579
    A4        2.20895  -0.00016   0.00000  -0.00090  -0.00090   2.20806
    A5        2.02924   0.00008   0.00000   0.00056   0.00056   2.02980
    A6        2.10843  -0.00015   0.00000  -0.00084  -0.00084   2.10759
    A7        2.14551   0.00006   0.00000   0.00027   0.00027   2.14579
    A8        2.09372   0.00001   0.00000  -0.00006  -0.00006   2.09366
    A9        2.10924   0.00004   0.00000   0.00017   0.00017   2.10941
   A10        2.08023  -0.00005   0.00000  -0.00010  -0.00010   2.08012
   A11        2.11149  -0.00004   0.00000  -0.00010  -0.00010   2.11139
   A12        2.08585   0.00002   0.00000   0.00005   0.00005   2.08590
   A13        2.08585   0.00002   0.00000   0.00005   0.00005   2.08590
   A14        2.09372   0.00001   0.00000  -0.00006  -0.00006   2.09366
   A15        2.10924   0.00004   0.00000   0.00017   0.00017   2.10941
   A16        2.08023  -0.00005   0.00000  -0.00010  -0.00010   2.08012
    D1        0.00000  -0.00000   0.00000  -0.00000   0.00000   0.00000
    D2        3.14159  -0.00000   0.00000  -0.00000   0.00000   3.14159
    D3       -0.00000   0.00000   0.00000   0.00000   0.00000   0.00000
    D4        3.14159   0.00000   0.00000   0.00000   0.00000   3.14159
    D5        3.14159   0.00000   0.00000   0.00000   0.00000   3.14159
    D6        0.00000   0.00000   0.00000   0.00000   0.00000   0.00000
    D7       -0.00000   0.00000   0.00000  -0.00000   0.00000   0.00000
    D8        3.14159   0.00000   0.00000  -0.00000   0.00000   3.14159
    D9        0.00000   0.00000   0.00000   0.00000   0.00000   0.00000
   D10        3.14159   0.00000   0.00000   0.00000   0.00000   3.14159
   D11        3.14159  -0.00000   0.00000   0.00000   0.00000   3.14159
   D12       -0.00000  -0.00000   0.00000   0.00000   0.00000   0.00000
   D13       -0.00000  -0.00000   0.00000  -0.00000   0.00000   0.00000
   D14        3.14159  -0.00000   0.00000  -0.00000   0.00000   3.14159
   D15        3.14159  -0.00000   0.00000  -0.00000   0.00000   3.14159
   D16        0.00000  -0.00000   0.00000  -0.00000   0.00000   0.00000
   D17        0.00000  -0.00000   0.00000  -0.00000   0.00000   0.00000
   D18        3.14159   0.00000   0.00000  -0.00000   0.00000   3.14159
   D19        3.14159  -0.00000   0.00000  -0.00000   0.00000   3.14159
   D20       -0.00000   0.00000   0.00000  -0.00000   0.00000   0.00000
         Item               Value     Threshold  Converged?
 Maximum Force            0.000195     0.000450     YES
 RMS     Force            0.000067     0.000300     YES
 Maximum Displacement     0.000959     0.001800     YES
 RMS     Displacement     0.000336     0.001200     YES
 Predicted change in Energy=-4.711620D-07
 Optimization completed.
    -- Stationary point found.
                           ----------------------------
                           !   Optimized Parameters   !
                           ! (Angstroms and Degrees)  !
 --------------------------                            --------------------------
 ! Name  Definition              Value          Derivative Info.                !
 --------------------------------------------------------------------------------
 ! R1    R(1,2)                  1.3669         -DE/DX =    0.0001              !
 ! R2    R(1,6)                  1.3999         -DE/DX =    0.0                 !
 ! R3    R(1,8)                  1.7253         -DE/DX =    0.0                 !
 ! R4    R(2,3)                  1.3669         -DE/DX =    0.0001              !
 ! R5    R(3,4)                  1.3999         -DE/DX =    0.0                 !
 ! R6    R(3,9)                  1.7253         -DE/DX =    0.0                 !
 ! R7    R(4,5)                  1.3903         -DE/DX =    0.0001              !
 ! R8    R(4,10)                 1.7282         -DE/DX =   -0.0002              !
 ! R9    R(5,6)                  1.3903         -DE/DX =    0.0001              !
 ! R10   R(5,11)                 1.0814         -DE/DX =    0.0                 !
 ! R11   R(6,7)                  1.7282         -DE/DX =   -0.0002              !
 ! A1    A(2,1,6)              116.267          -DE/DX =    0.0001              !
 ! A2    A(2,1,8)              120.804          -DE/DX =   -0.0001              !
 ! A3    A(6,1,8)              122.9289         -DE/DX =    0.0001              !
 ! A4    A(1,2,3)              126.5637         -DE/DX =   -0.0002              !
 ! A5    A(2,3,4)              116.267          -DE/DX =    0.0001              !
 ! A6    A(2,3,9)              120.804          -DE/DX =   -0.0001              !
 ! A7    A(4,3,9)              122.9289         -DE/DX =    0.0001              !
 ! A8    A(3,4,5)              119.9613         -DE/DX =    0.0                 !
 ! A9    A(3,4,10)             120.8506         -DE/DX =    0.0                 !
 ! A10   A(5,4,10)             119.1881         -DE/DX =   -0.0001              !
 ! A11   A(4,5,6)              120.9797         -DE/DX =    0.0                 !
 ! A12   A(4,5,11)             119.5102         -DE/DX =    0.0                 !
 ! A13   A(6,5,11)             119.5102         -DE/DX =    0.0                 !
 ! A14   A(1,6,5)              119.9613         -DE/DX =    0.0                 !
 ! A15   A(1,6,7)              120.8506         -DE/DX =    0.0                 !
 ! A16   A(5,6,7)              119.1881         -DE/DX =   -0.0001              !
 ! D1    D(6,1,2,3)              0.0            -DE/DX =    0.0                 !
 ! D2    D(8,1,2,3)            180.0            -DE/DX =    0.0                 !
 ! D3    D(2,1,6,5)              0.0            -DE/DX =    0.0                 !
 ! D4    D(2,1,6,7)            180.0            -DE/DX =    0.0                 !
 ! D5    D(8,1,6,5)            180.0            -DE/DX =    0.0                 !
 ! D6    D(8,1,6,7)              0.0            -DE/DX =    0.0                 !
 ! D7    D(1,2,3,4)              0.0            -DE/DX =    0.0                 !
 ! D8    D(1,2,3,9)            180.0            -DE/DX =    0.0                 !
 ! D9    D(2,3,4,5)              0.0            -DE/DX =    0.0                 !
 ! D10   D(2,3,4,10)           180.0            -DE/DX =    0.0                 !
 ! D11   D(9,3,4,5)            180.0            -DE/DX =    0.0                 !
 ! D12   D(9,3,4,10)             0.0            -DE/DX =    0.0                 !
 ! D13   D(3,4,5,6)              0.0            -DE/DX =    0.0                 !
 ! D14   D(3,4,5,11)           180.0            -DE/DX =    0.0                 !
 ! D15   D(10,4,5,6)           180.0            -DE/DX =    0.0                 !
 ! D16   D(10,4,5,11)            0.0            -DE/DX =    0.0                 !
 ! D17   D(4,5,6,1)              0.0            -DE/DX =    0.0                 !
 ! D18   D(4,5,6,7)            180.0            -DE/DX =    0.0                 !
 ! D19   D(11,5,6,1)           180.0            -DE/DX =    0.0                 !
 ! D20   D(11,5,6,7)             0.0            -DE/DX =    0.0                 !
 --------------------------------------------------------------------------------
 GradGradGradGradGradGradGradGradGradGradGradGradGradGradGradGradGradGrad


 ----------------------------------------------------------------------

 Electric dipole moment (input orientation):
 (Debye = 10**-18 statcoulomb cm , SI units = C m)
                  (au)            (Debye)         (10**-30 SI)
   Tot        0.307691D+00      0.782071D+00      0.260871D+01
   x          0.844946D-02      0.214764D-01      0.716375D-01
   y         -0.307575D+00     -0.781776D+00     -0.260773D+01
   z          0.000000D+00      0.000000D+00      0.000000D+00

 Dipole polarizability, Alpha (input orientation).
 (esu units = cm**3 , SI units = C**2 m**2 J**-1)
 Alpha(0;0):
               (au)            (10**-24 esu)      (10**-40 SI)
   iso        0.115677D+03      0.171415D+02      0.190725D+02
   aniso      0.906360D+02      0.134309D+02      0.149439D+02
   xx         0.165516D+03      0.245269D+02      0.272898D+02
   yx         0.124257D+01      0.184129D+00      0.204872D+00
   yy         0.120318D+03      0.178293D+02      0.198378D+02
   zx         0.000000D+00      0.000000D+00      0.000000D+00
   zy         0.000000D+00      0.000000D+00      0.000000D+00
   zz         0.611969D+02      0.906845D+01      0.100900D+02

 ----------------------------------------------------------------------

 Dipole orientation:
     6         -6.05624930         -0.16637277         -0.41860946
     6         -3.74978513         -0.10301130         -1.57999371
     6         -1.44332097         -0.03964984         -0.41860946
     6         -1.46414095         -0.04022179          2.22664200
     6         -3.74978513         -0.10301130          3.52082072
     6         -6.03542932         -0.16580082          2.22664200
    17         -8.82483032         -0.24242917          3.92337774
    17         -8.80566597         -0.24190270         -2.16934395
    17          1.30609570          0.03588009         -2.16934395
    17          1.32526005          0.03640656          3.92337774
     1         -3.74978513         -0.10301130          5.56440408

 Electric dipole moment (dipole orientation):
 (Debye = 10**-18 statcoulomb cm , SI units = C m)
                  (au)            (Debye)         (10**-30 SI)
   Tot        0.307691D+00      0.782071D+00      0.260871D+01
   x          0.000000D+00      0.000000D+00      0.000000D+00
   y          0.000000D+00      0.000000D+00      0.000000D+00
   z          0.307691D+00      0.782071D+00      0.260871D+01

 Dipole polarizability, Alpha (dipole orientation).
 (esu units = cm**3 , SI units = C**2 m**2 J**-1)
 Alpha(0;0):
               (au)            (10**-24 esu)      (10**-40 SI)
   iso        0.115677D+03      0.171415D+02      0.190725D+02
   aniso      0.906360D+02      0.134309D+02      0.149439D+02
   xx         0.165471D+03      0.245203D+02      0.272825D+02
   yx         0.286454D+01      0.424481D+00      0.472299D+00
   yy         0.612756D+02      0.908011D+01      0.101030D+02
   zx         0.000000D+00      0.000000D+00      0.000000D+00
   zy         0.000000D+00      0.000000D+00      0.000000D+00
   zz         0.120284D+03      0.178243D+02      0.198322D+02

 ----------------------------------------------------------------------
 1\1\GINC-SH03-01N11\Freq\UM062X\6-311++G(d,p)\C6H1Cl4(2)\JLAPIER\09-De
 c-2025\0\\#N Geom=AllCheck Guess=TCheck SCRF=Check GenChk UM062X/6-311
 ++G(d,p) Freq\\Neutral Radical (removed 3) 12_45\\0,2\C,-3.2109122126,
 0.1333943658,0.\C,-2.0072608016,0.7812701213,0.\C,-0.7698556618,0.2004
 532535,0.\C,-0.7424331744,-1.1991282987,0.\C,-1.9331373986,-1.91694669
 45,0.\C,-3.1614548049,-1.2655818595,0.\Cl,-4.6128858266,-2.2036671134,
 0.\Cl,-4.6912819703,1.0195250645,0.\Cl,0.659631869,1.1665213845,0.\Cl,
 0.7583106888,-2.0561136028,0.\H,-1.9034406993,-2.9979566091,0.\\Versio
 n=ES64L-G16RevB.01\State=2-A1\HF=-2069.8998132\S2=0.763297\S2-1=0.\S2A
 =0.750082\RMSD=5.982e-09\RMSF=1.154e-04\ZeroPoint=0.050297\Thermal=0.0
 593266\Dipole=0.0084495,-0.3075745,0.\DipoleDeriv=0.6891463,-0.5947387
 ,0.,-0.5317726,0.2033176,0.,0.,0.,0.0347027,-0.2116044,-0.0018682,0.,-
 0.0018685,-0.1436415,0.,0.,0.,-0.0486342,0.6259286,0.6179756,0.,0.5550
 094,0.2665352,0.,0.,0.,0.0347027,0.7789157,-0.5665059,0.,-0.5187238,0.
 3081518,0.,0.,0.,0.0066521,-0.4076021,-0.0087151,0.,-0.008715,-0.09059
 92,0.,0.,0.,-0.105426,0.7180064,0.5890412,0.,0.5412592,0.3690612,0.,0.
 ,0.,0.0066521,-0.5621983,-0.3346971,0.,-0.3812854,-0.2745226,0.,0.,0.,
 -0.0280993,-0.5661573,0.3197847,0.,0.3296903,-0.2111677,0.,0.,0.,-0.00
 92318,-0.5294842,-0.3372871,0.,-0.3471926,-0.2478408,0.,0.,0.,-0.00923
 18,-0.6005801,0.3167691,0.,0.3633575,-0.2361408,0.,0.,0.,-0.0280994,0.
 0656294,0.0002415,0.,0.0002414,0.0568468,0.,0.,0.,0.1460128\Polar=165.
 515568,1.2425664,120.3181776,0.,0.,61.1969038\Quadrupole=-1.2271588,1.
 9219671,-0.6948083,-0.0865758,0.,0.\PG=C02V [C2(C1C1H1),SGV(C4Cl4)]\NI
 mag=0\\0.60074252,0.03853742,0.56108638,0.,0.,0.12252676,-0.29601980,-
 0.10374244,0.,0.70591697,-0.13164283,-0.14750539,0.,0.01025212,0.33300
 393,0.,0.,-0.06052926,0.,0.,0.07958494,-0.05908117,-0.02732703,0.,-0.3
 0847558,0.12279205,0.,0.60484810,0.02016846,0.07111257,0.,0.09489165,-
 0.13504962,0.,-0.03613122,0.55698080,0.,0.,0.01577451,0.,0.,-0.0605292
 7,0.,0.,0.12252676,-0.01753877,-0.03795283,0.,0.02935159,0.02587026,0.
 ,-0.09643396,0.04438784,0.,0.57171851,-0.03744569,-0.06746514,0.,0.101
 76796,-0.02160868,0.,-0.04224480,-0.29861836,0.,0.04274932,0.60014877,
 0.,0.,-0.01055016,0.,0.,0.02080862,0.,0.,-0.07334986,0.,0.,0.12667537,
 0.03723098,0.08785636,0.,-0.08262904,-0.00208107,0.,0.04319040,-0.0843
 3474,0.,-0.26314853,-0.06260505,0.,0.67291619,0.02404989,-0.02085757,0
 .,-0.00208106,-0.00693186,0.,-0.02052828,-0.02681699,0.,-0.14011390,-0
 .18286976,0.,-0.00239281,0.75995233,0.,0.,0.01541093,0.,0.,-0.01023109
 ,0.,0.,0.01541092,0.,0.,-0.06709617,0.,0.,0.13258666,-0.09692589,-0.03
 329798,0.,0.03619489,-0.02269198,0.,-0.02182248,0.04046245,0.,-0.06384
 347,-0.03842354,0.,-0.27401925,0.13510213,0.,0.57649110,0.05333466,-0.
 29812643,0.,-0.09858968,-0.02845199,0.,0.03995531,-0.06318144,0.,0.030
 79173,0.07495723,0.,0.05759329,-0.17199902,0.,-0.04405012,0.59537619,0
 .,0.,-0.07334986,0.,0.,0.02080861,0.,0.,-0.01055016,0.,0.,0.01347840,0
 .,0.,-0.06709617,0.,0.,0.12667537,-0.01508599,-0.00842836,0.,-0.000042
 28,-0.00193316,0.,0.00053766,-0.00057601,0.,0.00145253,0.00424580,0.,-
 0.04028379,-0.02426266,0.,-0.14503271,-0.06927453,0.,0.19821901,-0.033
 61422,-0.02162499,0.,0.00206429,-0.00507970,0.,0.00033750,0.00183395,0
 .,0.00187977,-0.00080379,0.,-0.00021876,0.00458401,0.,-0.06636470,-0.0
 8057897,0.,0.09906487,0.10594997,0.,0.,0.00465196,0.,0.,0.00304810,0.,
 0.,-0.00021309,0.,0.,0.00396158,0.,0.,0.00486691,0.,0.,-0.02255710,0.,
 0.,0.01053130,-0.15066651,0.08023907,0.,-0.04198695,0.01368847,0.,0.00
 074410,-0.00184282,0.,0.00044804,0.00080778,0.,0.00127928,0.00047191,0
 .,-0.01523768,0.00801299,0.,0.00298995,-0.00267651,0.,0.20563824,0.062
 49982,-0.07699930,0.,0.00444814,0.00847568,0.,-0.00267494,-0.00199754,
 0.,0.00027886,0.00056395,0.,-0.00349063,-0.00402153,0.,0.03319656,-0.0
 1809571,0.,0.00314753,-0.00477404,0.,-0.09981509,0.09713997,0.,0.,-0.0
 2188464,0.,0.,0.00237151,0.,0.,0.00284230,0.,0.,0.00054958,0.,0.,0.002
 72370,0.,0.,0.00538138,0.,0.,-0.00139373,0.,0.,0.00964291,0.00048818,0
 .00197950,0.,-0.04084063,-0.01640007,0.,-0.14261977,-0.08384715,0.,-0.
 01298726,-0.00773210,0.,0.00109783,-0.00019043,0.,0.00050796,-0.000810
 86,0.,-0.00146688,-0.00111405,0.,-0.00101979,-0.00005668,0.,0.19436783
 ,0.00281161,-0.00174162,0.,-0.00715975,0.00732936,0.,-0.06610790,-0.08
 504605,0.,-0.03291567,-0.02034613,0.,0.00377211,-0.00384007,0.,-0.0002
 8194,0.00050403,0.,-0.00112892,-0.00063451,0.,-0.00001797,0.00033790,0
 .,0.10516107,0.10841038,0.,0.,0.00284230,0.,0.,0.00237151,0.,0.,-0.021
 88464,0.,0.,0.00538138,0.,0.,0.00272370,0.,0.,0.00054958,0.,0.,-0.0002
 6601,0.,0.,-0.00011955,0.,0.,0.00964291,0.00052849,0.00050423,0.,-0.00
 005028,0.00220970,0.,-0.01741040,0.00866010,0.,-0.15227395,0.06533245,
 0.,-0.04149058,0.02172929,0.,0.00178152,-0.00410365,0.,-0.00153422,-0.
 00015426,0.,-0.00158733,0.00107653,0.,0.00299237,-0.00272050,0.,0.2088
 0203,-0.00040927,0.00184312,0.,-0.00178776,-0.00507170,0.,0.03384595,-
 0.01930058,0.,0.06242262,-0.07333773,0.,-0.00231462,0.00579080,0.,-0.0
 0173762,-0.00113278,0.,0.00004808,0.00039685,0.,0.00106166,-0.00051406
 ,0.,0.00310354,-0.00477646,0.,-0.09340965,0.09536695,0.,0.,-0.00021309
 ,0.,0.,0.00304810,0.,0.,0.00465196,0.,0.,-0.02255710,0.,0.,0.00486691,
 0.,0.,0.00396158,0.,0.,0.00018675,0.,0.,-0.00026601,0.,0.,-0.00139373,
 0.,0.,0.01053130,-0.00367203,0.00163208,0.,-0.00141888,-0.00006348,0.,
 -0.00347691,-0.00183856,0.,0.00325526,-0.02645211,0.,-0.05414348,0.008
 21590,0.,0.00190602,0.02714086,0.,0.00024673,0.00079606,0.,-0.00060135
 ,0.00138990,0.,-0.00051983,-0.00141215,0.,0.00024235,-0.00082294,0.,0.
 05818211,0.00171018,0.00027837,0.,-0.00006348,0.00088998,0.,-0.0019166
 6,0.00008325,0.,0.00260201,-0.01062037,0.,0.00821590,-0.35299034,0.,-0
 .00191326,-0.00927113,0.,-0.00090265,0.00073121,0.,0.00007053,-0.00011
 529,0.,-0.00009277,-0.00019682,0.,0.00087577,0.00073559,0.,-0.00858557
 ,0.37047554,0.,0.,0.00532055,0.,0.,-0.00075179,0.,0.,0.00532055,0.,0.,
 0.00269838,0.,0.,-0.03416631,0.,0.,0.00269838,0.,0.,-0.00281667,0.,0.,
 0.00015254,0.,0.,0.00015254,0.,0.,-0.00281667,0.,0.,0.02420849\\0.0000
 7949,0.00021658,0.,0.00001017,-0.00037005,0.,-0.00009126,0.00021189,0.
 ,-0.00021923,0.00000830,0.,-0.00000258,0.00009396,0.,0.00021844,0.0000
 2032,0.,-0.00017929,-0.00008264,0.,-0.00006876,-0.00003346,0.,0.000070
 49,-0.00002964,0.,0.00018355,-0.00007267,0.,-0.00000103,0.00003741,0.\
 \\@


 KINETICS       FACT
 ---------  =  -------
 MECHANISM     FICTION
 Job cpu time:       0 days  0 hours 22 minutes 18.3 seconds.
 Elapsed time:       0 days  0 hours  5 minutes 36.7 seconds.
 File lengths (MBytes):  RWF=    142 Int=      0 D2E=      0 Chk=     34 Scr=      1
 Normal termination of Gaussian 16 at Tue Dec  9 13:30:44 2025.
