 Entering Gaussian System, Link 0=g16
 Initial command:
 /share/software/user/restricted/gaussian/g16.B01/l1.exe "/home/users/jlapier/Chloroaromatics/Gau-28821.inp" -scrdir="/home/users/jlapier/Chloroaromatics/"
 Entering Link 1 = /share/software/user/restricted/gaussian/g16.B01/l1.exe PID=     28822.
  
 Copyright (c) 1988-2017, Gaussian, Inc.  All Rights Reserved.
  
 This is part of the Gaussian(R) 16 program.  It is based on
 the Gaussian(R) 09 system (copyright 2009, Gaussian, Inc.),
 the Gaussian(R) 03 system (copyright 2003, Gaussian, Inc.),
 the Gaussian(R) 98 system (copyright 1998, Gaussian, Inc.),
 the Gaussian(R) 94 system (copyright 1995, Gaussian, Inc.),
 the Gaussian 92(TM) system (copyright 1992, Gaussian, Inc.),
 the Gaussian 90(TM) system (copyright 1990, Gaussian, Inc.),
 the Gaussian 88(TM) system (copyright 1988, Gaussian, Inc.),
 the Gaussian 86(TM) system (copyright 1986, Carnegie Mellon
 University), and the Gaussian 82(TM) system (copyright 1983,
 Carnegie Mellon University). Gaussian is a federally registered
 trademark of Gaussian, Inc.
  
 This software contains proprietary and confidential information,
 including trade secrets, belonging to Gaussian, Inc.
  
 This software is provided under written license and may be
 used, copied, transmitted, or stored only in accord with that
 written license.
  
 The following legend is applicable only to US Government
 contracts under FAR:
  
                    RESTRICTED RIGHTS LEGEND
  
 Use, reproduction and disclosure by the US Government is
 subject to restrictions as set forth in subparagraphs (a)
 and (c) of the Commercial Computer Software - Restricted
 Rights clause in FAR 52.227-19.
  
 Gaussian, Inc.
 340 Quinnipiac St., Bldg. 40, Wallingford CT 06492
  
  
 ---------------------------------------------------------------
 Warning -- This program may not be used in any manner that
 competes with the business of Gaussian, Inc. or will provide
 assistance to any competitor of Gaussian, Inc.  The licensee
 of this program is prohibited from giving any competitor of
 Gaussian, Inc. access to this program.  By using this program,
 the user acknowledges that Gaussian, Inc. is engaged in the
 business of creating and licensing software in the field of
 computational chemistry and represents and warrants to the
 licensee that it is not a competitor of Gaussian, Inc. and that
 it will not use this program in any manner prohibited above.
 ---------------------------------------------------------------
  

 Cite this work as:
 Gaussian 16, Revision B.01,
 M. J. Frisch, G. W. Trucks, H. B. Schlegel, G. E. Scuseria, 
 M. A. Robb, J. R. Cheeseman, G. Scalmani, V. Barone, 
 G. A. Petersson, H. Nakatsuji, X. Li, M. Caricato, A. V. Marenich, 
 J. Bloino, B. G. Janesko, R. Gomperts, B. Mennucci, H. P. Hratchian, 
 J. V. Ortiz, A. F. Izmaylov, J. L. Sonnenberg, D. Williams-Young, 
 F. Ding, F. Lipparini, F. Egidi, J. Goings, B. Peng, A. Petrone, 
 T. Henderson, D. Ranasinghe, V. G. Zakrzewski, J. Gao, N. Rega, 
 G. Zheng, W. Liang, M. Hada, M. Ehara, K. Toyota, R. Fukuda, 
 J. Hasegawa, M. Ishida, T. Nakajima, Y. Honda, O. Kitao, H. Nakai, 
 T. Vreven, K. Throssell, J. A. Montgomery, Jr., J. E. Peralta, 
 F. Ogliaro, M. J. Bearpark, J. J. Heyd, E. N. Brothers, K. N. Kudin, 
 V. N. Staroverov, T. A. Keith, R. Kobayashi, J. Normand, 
 K. Raghavachari, A. P. Rendell, J. C. Burant, S. S. Iyengar, 
 J. Tomasi, M. Cossi, J. M. Millam, M. Klene, C. Adamo, R. Cammi, 
 J. W. Ochterski, R. L. Martin, K. Morokuma, O. Farkas, 
 J. B. Foresman, and D. J. Fox, Gaussian, Inc., Wallingford CT, 2016.
 
 ******************************************
 Gaussian 16:  ES64L-G16RevB.01 20-Dec-2017
                 9-Dec-2025 
 ******************************************
 %mem=8GB
 %nprocshare=4
 Will use up to    4 processors via shared memory.
 %oldchk=geometry_chks/12_5ClBzNeutralRadical.chk
 %chk=frequency_chks/12_5ClBzNeutralRadical_Freq.chk
 Copying data from "geometry_chks/12_5ClBzNeutralRadical.chk" to current chk file "frequency_chks/12_5ClBzNeutralRadical_Freq.chk"
 IOpt=  2 FromEx=T IUOpen= 4 IOptOp= 5 NList=   0 IFRang= 0 IUIn= 4 IUOut= 2.
 -------------------------------------------------------
 # opt freq 6-311++g(d,p) guess=read geom=allcheck m062x
 -------------------------------------------------------
 1/18=20,19=15,26=3,29=7,38=1/1,3;
 2/9=110,12=2,40=1/2;
 3/5=4,6=6,7=1111,11=2,14=-4,25=1,30=1,71=1,74=-55,116=-2/1,2,3;
 4/5=1/1;
 5/5=2,38=6/2;
 6/7=2,8=2,9=2,10=2,28=1/1;
 7//1,2,3,16;
 1/18=20,19=15,26=3/3(2);
 2/9=110/2;
 99//99;
 2/9=110/2;
 3/5=4,6=6,7=1111,11=2,14=-2,25=1,30=1,71=1,74=-55/1,2,3;
 4/5=5,16=3,69=1/1;
 5/5=2,38=5/2;
 7//1,2,3,16;
 1/18=20,19=15,26=3/3(-5);
 2/9=110/2;
 6/7=2,8=2,9=2,10=2,19=2,28=1/1;
 99/9=1/99;
 Structure from the checkpoint file:  "frequency_chks/12_5ClBzNeutralRadical_Freq.chk"
 --------------------------------
 Neutral Radical (removed 4) 12_5
 --------------------------------
 Charge =  0 Multiplicity = 2
 Redundant internal coordinates found in file.  (old form).
 C,0,-3.223253582,0.2094788184,0.
 C,0,-2.0208486907,0.9547600929,0.
 C,0,-0.8744051128,0.2099871439,0.
 C,0,-0.7305616056,-1.1592041979,0.
 C,0,-1.9373317606,-1.8916926068,0.
 C,0,-3.1652745538,-1.2044431948,0.
 Cl,0,-4.5908838242,-2.11860345,0.
 Cl,0,-4.6981816409,1.0294196737,0.
 H,0,-2.0149270339,2.0528945613,0.
 Cl,0,0.7687163322,-1.9192545494,0.
 H,0,-1.9167985278,-2.9918822913,0.
 Recover connectivity data from disk.

 GradGradGradGradGradGradGradGradGradGradGradGradGradGradGradGradGradGrad
 Berny optimization.
 Initialization pass.
                           ----------------------------
                           !    Initial Parameters    !
                           ! (Angstroms and Degrees)  !
 --------------------------                            --------------------------
 ! Name  Definition              Value          Derivative Info.                !
 --------------------------------------------------------------------------------
 ! R1    R(1,2)                  1.4146         estimate D2E/DX2                !
 ! R2    R(1,6)                  1.4151         estimate D2E/DX2                !
 ! R3    R(1,8)                  1.6875         estimate D2E/DX2                !
 ! R4    R(2,3)                  1.3671         estimate D2E/DX2                !
 ! R5    R(2,9)                  1.0982         estimate D2E/DX2                !
 ! R6    R(3,4)                  1.3767         estimate D2E/DX2                !
 ! R7    R(4,5)                  1.4117         estimate D2E/DX2                !
 ! R8    R(4,10)                 1.6809         estimate D2E/DX2                !
 ! R9    R(5,6)                  1.4072         estimate D2E/DX2                !
 ! R10   R(5,11)                 1.1004         estimate D2E/DX2                !
 ! R11   R(6,7)                  1.6935         estimate D2E/DX2                !
 ! A1    A(2,1,6)              119.4435         estimate D2E/DX2                !
 ! A2    A(2,1,8)              119.1378         estimate D2E/DX2                !
 ! A3    A(6,1,8)              121.4187         estimate D2E/DX2                !
 ! A4    A(1,2,3)              115.199          estimate D2E/DX2                !
 ! A5    A(1,2,9)              122.1007         estimate D2E/DX2                !
 ! A6    A(3,2,9)              122.7003         estimate D2E/DX2                !
 ! A7    A(2,3,4)              129.0066         estimate D2E/DX2                !
 ! A8    A(3,4,5)              115.2597         estimate D2E/DX2                !
 ! A9    A(3,4,10)             122.8798         estimate D2E/DX2                !
 ! A10   A(5,4,10)             121.8605         estimate D2E/DX2                !
 ! A11   A(4,5,6)              119.5083         estimate D2E/DX2                !
 ! A12   A(4,5,11)             120.1878         estimate D2E/DX2                !
 ! A13   A(6,5,11)             120.3039         estimate D2E/DX2                !
 ! A14   A(1,6,5)              121.5828         estimate D2E/DX2                !
 ! A15   A(1,6,7)              120.3215         estimate D2E/DX2                !
 ! A16   A(5,6,7)              118.0956         estimate D2E/DX2                !
 ! D1    D(6,1,2,3)              0.0            estimate D2E/DX2                !
 ! D2    D(6,1,2,9)            180.0            estimate D2E/DX2                !
 ! D3    D(8,1,2,3)            180.0            estimate D2E/DX2                !
 ! D4    D(8,1,2,9)              0.0            estimate D2E/DX2                !
 ! D5    D(2,1,6,5)              0.0            estimate D2E/DX2                !
 ! D6    D(2,1,6,7)            180.0            estimate D2E/DX2                !
 ! D7    D(8,1,6,5)            180.0            estimate D2E/DX2                !
 ! D8    D(8,1,6,7)              0.0            estimate D2E/DX2                !
 ! D9    D(1,2,3,4)              0.0            estimate D2E/DX2                !
 ! D10   D(9,2,3,4)            180.0            estimate D2E/DX2                !
 ! D11   D(2,3,4,5)              0.0            estimate D2E/DX2                !
 ! D12   D(2,3,4,10)           180.0            estimate D2E/DX2                !
 ! D13   D(3,4,5,6)              0.0            estimate D2E/DX2                !
 ! D14   D(3,4,5,11)           180.0            estimate D2E/DX2                !
 ! D15   D(10,4,5,6)           180.0            estimate D2E/DX2                !
 ! D16   D(10,4,5,11)            0.0            estimate D2E/DX2                !
 ! D17   D(4,5,6,1)              0.0            estimate D2E/DX2                !
 ! D18   D(4,5,6,7)            180.0            estimate D2E/DX2                !
 ! D19   D(11,5,6,1)           180.0            estimate D2E/DX2                !
 ! D20   D(11,5,6,7)             0.0            estimate D2E/DX2                !
 --------------------------------------------------------------------------------
 Trust Radius=3.00D-01 FncErr=1.00D-07 GrdErr=1.00D-06 EigMax=2.50D+02 EigMin=1.00D-04
 Number of steps in this run=     57 maximum allowed number of steps=    100.
 GradGradGradGradGradGradGradGradGradGradGradGradGradGradGradGradGradGrad

                          Input orientation:                          
 ---------------------------------------------------------------------
 Center     Atomic      Atomic             Coordinates (Angstroms)
 Number     Number       Type             X           Y           Z
 ---------------------------------------------------------------------
      1          6           0       -3.223254    0.209479    0.000000
      2          6           0       -2.020849    0.954760    0.000000
      3          6           0       -0.874405    0.209987   -0.000000
      4          6           0       -0.730562   -1.159204   -0.000000
      5          6           0       -1.937332   -1.891693   -0.000000
      6          6           0       -3.165275   -1.204443    0.000000
      7         17           0       -4.590884   -2.118603    0.000000
      8         17           0       -4.698182    1.029420    0.000000
      9          1           0       -2.014927    2.052895    0.000000
     10         17           0        0.768716   -1.919255   -0.000000
     11          1           0       -1.916799   -2.991882   -0.000000
 ---------------------------------------------------------------------
                    Distance matrix (angstroms):
                    1          2          3          4          5
     1  C    0.000000
     2  C    1.414645   0.000000
     3  C    2.348849   1.367121   0.000000
     4  C    2.843731   2.476628   1.376727   0.000000
     5  C    2.463436   2.847678   2.355180   1.411678   0.000000
     6  C    1.415110   2.443741   2.692340   2.435133   1.407180
     7  Cl   2.700070   4.006326   4.385721   3.977755   2.663236
     8  Cl   1.687518   2.678374   3.910593   4.531234   4.019352
     9  H    2.204140   1.098150   2.167279   3.459360   3.945350
    10  Cl   4.524083   4.005201   2.689520   1.680926   2.706188
    11  H    3.457678   3.948014   3.367277   2.183087   1.100381
                    6          7          8          9         10
     6  C    0.000000
     7  Cl   1.693532   0.000000
     8  Cl   2.709234   3.149851   0.000000
     9  H    3.454497   4.902749   2.871821   0.000000
    10  Cl   3.998405   5.363306   6.211413   4.850427   0.000000
    11  H    2.180282   2.813067   4.889475   5.045731   2.891802
                   11
    11  H    0.000000
 Stoichiometry    C6H2Cl3(2)
 Framework group  CS[SG(C6H2Cl3)]
 Deg. of freedom    19
 Full point group                 CS      NOp   2
 Largest Abelian subgroup         CS      NOp   2
 Largest concise Abelian subgroup C1      NOp   1
                         Standard orientation:                         
 ---------------------------------------------------------------------
 Center     Atomic      Atomic             Coordinates (Angstroms)
 Number     Number       Type             X           Y           Z
 ---------------------------------------------------------------------
      1          6           0        1.233324   -0.114727   -0.000000
      2          6           0        1.235337    1.299917    0.000000
      3          6           0       -0.000852    1.883747    0.000000
      4          6           0       -1.241255    1.286439    0.000000
      5          6           0       -1.230090   -0.125194    0.000000
      6          6           0        0.000000   -0.808593   -0.000000
      7         17           0       -0.028360   -2.501888   -0.000000
      8         17           0        2.706118   -0.938495   -0.000000
      9          1           0        2.166427    1.882159   -0.000000
     10         17           0       -2.675898    2.162402    0.000000
     11          1           0       -2.176834   -0.686011    0.000000
 ---------------------------------------------------------------------
 Rotational constants (GHZ):           1.9218865           0.6056954           0.4605500
 Standard basis: 6-311++G(d,p) (5D, 7F)
 There are   183 symmetry adapted cartesian basis functions of A'  symmetry.
 There are    62 symmetry adapted cartesian basis functions of A"  symmetry.
 There are   174 symmetry adapted basis functions of A'  symmetry.
 There are    62 symmetry adapted basis functions of A"  symmetry.
   236 basis functions,   393 primitive gaussians,   245 cartesian basis functions
    45 alpha electrons       44 beta electrons
       nuclear repulsion energy       616.8208073003 Hartrees.
 NAtoms=   11 NActive=   11 NUniq=   11 SFac= 1.00D+00 NAtFMM=   60 NAOKFM=F Big=F
 Integral buffers will be    131072 words long.
 Raffenetti 2 integral format.
 Two-electron integral symmetry is turned on.
 One-electron integrals computed using PRISM.
 NBasis=   236 RedAO= T EigKep=  1.15D-06  NBF=   174    62
 NBsUse=   236 1.00D-06 EigRej= -1.00D+00 NBFU=   174    62
 Initial guess from the checkpoint file:  "frequency_chks/12_5ClBzNeutralRadical_Freq.chk"
 B after Tr=    -0.000000   -0.000000    0.000000
         Rot=    1.000000    0.000000   -0.000000    0.000000 Ang=   0.00 deg.
 Initial guess orbital symmetries:
 Alpha Orbitals:
       Occupied  (A') (A') (A') (A') (A') (A') (A') (A') (A') (A')
                 (A') (A') (A") (A') (A") (A') (A") (A') (A') (A')
                 (A") (A') (A") (A") (A") (A") (A') (A') (A') (A")
                 (A') (A') (A') (A') (A') (A') (A') (A') (A') (A')
                 (A') (A') (A') (A') (A')
       Virtual   (A') (A') (A') (A') (A') (A') (A') (A') (A') (A')
                 (A') (A') (A') (A') (A') (A') (A') (A') (A') (A')
                 (A') (A') (A') (A') (A') (A') (A') (A') (A') (A')
                 (A') (A') (A') (A') (A') (A') (A') (A') (A') (A')
                 (A') (A') (A') (A') (A') (A') (A') (A') (A') (A')
                 (A') (A') (A') (A') (A') (A') (A') (A') (A') (A')
                 (A') (A') (A') (A') (A') (A') (A') (A') (A') (A')
                 (A') (A') (A') (A') (A') (A') (A') (A') (A') (A')
                 (A') (A') (A') (A') (A') (A') (A') (A') (A') (A')
                 (A') (A') (A') (A') (A') (A') (A') (A') (A') (A')
                 (A') (A') (A') (A') (A') (A') (A') (A') (A') (A')
                 (A') (A') (A') (A') (A') (A') (A') (A') (A') (A')
                 (A') (A') (A') (A') (A') (A') (A') (A') (A') (A')
                 (A') (A') (A') (A') (A') (A') (A') (A') (A") (A")
                 (A") (A") (A") (A") (A") (A") (A") (A") (A") (A")
                 (A") (A") (A") (A") (A") (A") (A") (A") (A") (A")
                 (A") (A") (A") (A") (A") (A") (A") (A") (A") (A")
                 (A") (A") (A") (A") (A") (A") (A") (A") (A") (A")
                 (A") (A") (A") (A") (A") (A") (A") (A") (A") (A")
                 (A")
 Beta  Orbitals:
       Occupied  (A') (A') (A') (A') (A') (A') (A') (A') (A') (A')
                 (A') (A") (A') (A') (A") (A') (A") (A') (A') (A')
                 (A") (A") (A") (A') (A") (A") (A') (A') (A') (A")
                 (A') (A') (A') (A') (A') (A') (A') (A') (A') (A')
                 (A') (A') (A') (A')
       Virtual   (A') (A') (A') (A') (A') (A') (A') (A') (A') (A')
                 (A') (A') (A') (A') (A') (A') (A') (A') (A') (A')
                 (A') (A') (A') (A') (A') (A') (A') (A') (A') (A')
                 (A') (A') (A') (A') (A') (A') (A') (A') (A') (A')
                 (A') (A') (A') (A') (A') (A') (A') (A') (A') (A')
                 (A') (A') (A') (A') (A') (A') (A') (A') (A') (A')
                 (A') (A') (A') (A') (A') (A') (A') (A') (A') (A')
                 (A') (A') (A') (A') (A') (A') (A') (A') (A') (A')
                 (A') (A') (A') (A') (A') (A') (A') (A') (A') (A')
                 (A') (A') (A') (A') (A') (A') (A') (A') (A') (A')
                 (A') (A') (A') (A') (A') (A') (A') (A') (A') (A')
                 (A') (A') (A') (A') (A') (A') (A') (A') (A') (A')
                 (A') (A') (A') (A') (A') (A') (A') (A') (A') (A')
                 (A') (A') (A') (A') (A') (A') (A') (A') (A') (A")
                 (A") (A") (A") (A") (A") (A") (A") (A") (A") (A")
                 (A") (A") (A") (A") (A") (A") (A") (A") (A") (A")
                 (A") (A") (A") (A") (A") (A") (A") (A") (A") (A")
                 (A") (A") (A") (A") (A") (A") (A") (A") (A") (A")
                 (A") (A") (A") (A") (A") (A") (A") (A") (A") (A")
                 (A") (A")
 Initial guess <Sx>= 0.0000 <Sy>= 0.0000 <Sz>= 0.5000 <S**2>= 0.7500 S= 0.5000
 Keep R1 and R2 ints in memory in symmetry-blocked form, NReq=617299900.
 Requested convergence on RMS density matrix=1.00D-08 within 128 cycles.
 Requested convergence on MAX density matrix=1.00D-06.
 Requested convergence on             energy=1.00D-06.
 No special actions if energy rises.
 EnCoef did     3 forward-backward iterations
 EnCoef did     3 forward-backward iterations
 EnCoef did     4 forward-backward iterations
 SCF Done:  E(UM062X) =  -1610.30035222     A.U. after   33 cycles
            NFock= 33  Conv=0.65D-08     -V/T= 2.0023
 <Sx>= 0.0000 <Sy>= 0.0000 <Sz>= 0.5000 <S**2>= 0.7632 S= 0.5066
 <L.S>=  0.00000000000    
 Annihilation of the first spin contaminant:
 S**2 before annihilation     0.7632,   after     0.7501

 **********************************************************************

            Population analysis using the SCF Density.

 **********************************************************************

 Orbital symmetries:
 Alpha Orbitals:
       Occupied  (A') (A') (A') (A') (A') (A') (A') (A') (A') (A')
                 (A') (A') (A') (A') (A') (A") (A') (A") (A') (A")
                 (A') (A') (A') (A') (A') (A') (A') (A') (A') (A')
                 (A') (A') (A') (A") (A') (A') (A") (A") (A') (A')
                 (A") (A') (A') (A") (A")
       Virtual   (A") (A") (A') (A') (A') (A') (A') (A') (A") (A')
                 (A") (A') (A") (A') (A') (A') (A") (A') (A") (A')
                 (A') (A') (A") (A') (A") (A') (A') (A") (A') (A')
                 (A") (A') (A") (A') (A') (A') (A') (A') (A') (A')
                 (A') (A') (A') (A') (A') (A') (A') (A') (A') (A')
                 (A') (A') (A") (A') (A") (A') (A') (A") (A') (A')
                 (A') (A") (A') (A") (A') (A") (A") (A') (A") (A')
                 (A') (A") (A') (A') (A') (A') (A') (A") (A') (A')
                 (A") (A') (A') (A') (A") (A') (A") (A") (A') (A")
                 (A') (A') (A') (A') (A') (A") (A') (A') (A') (A")
                 (A') (A') (A") (A') (A') (A') (A") (A') (A') (A")
                 (A") (A') (A') (A') (A") (A') (A') (A") (A') (A')
                 (A') (A") (A') (A") (A") (A') (A') (A") (A') (A")
                 (A') (A') (A') (A') (A") (A") (A") (A") (A') (A')
                 (A') (A') (A') (A') (A') (A') (A') (A') (A") (A')
                 (A') (A") (A') (A") (A") (A") (A') (A") (A') (A')
                 (A') (A') (A') (A') (A') (A') (A') (A') (A') (A')
                 (A') (A') (A') (A') (A') (A') (A') (A') (A') (A")
                 (A") (A") (A') (A') (A') (A') (A') (A') (A') (A')
                 (A')
 Beta  Orbitals:
       Occupied  (A') (A') (A') (A') (A') (A') (A') (A') (A') (A')
                 (A') (A') (A') (A') (A') (A") (A') (A") (A') (A")
                 (A') (A') (A') (A') (A') (A') (A') (A') (A') (A')
                 (A') (A') (A') (A") (A') (A') (A") (A") (A') (A')
                 (A") (A') (A") (A")
       Virtual   (A') (A") (A") (A') (A') (A') (A') (A') (A") (A')
                 (A') (A") (A') (A") (A') (A') (A') (A") (A') (A")
                 (A') (A') (A') (A") (A') (A") (A') (A') (A") (A')
                 (A') (A") (A') (A') (A") (A') (A') (A') (A') (A')
                 (A') (A') (A') (A') (A') (A') (A') (A') (A') (A')
                 (A') (A') (A') (A") (A') (A") (A') (A') (A") (A')
                 (A') (A') (A") (A') (A') (A") (A') (A") (A") (A")
                 (A') (A') (A") (A') (A') (A') (A') (A') (A") (A')
                 (A') (A') (A") (A') (A') (A") (A') (A") (A") (A')
                 (A") (A') (A') (A') (A') (A') (A") (A') (A') (A')
                 (A") (A') (A') (A") (A') (A') (A') (A') (A") (A')
                 (A") (A") (A') (A') (A') (A") (A') (A') (A") (A')
                 (A') (A') (A") (A') (A") (A") (A') (A') (A") (A')
                 (A") (A') (A') (A') (A') (A") (A") (A") (A") (A')
                 (A') (A') (A') (A') (A') (A') (A') (A') (A') (A")
                 (A') (A') (A") (A') (A") (A") (A") (A') (A") (A')
                 (A') (A') (A') (A') (A') (A') (A') (A') (A') (A')
                 (A') (A') (A') (A') (A') (A') (A') (A') (A') (A')
                 (A") (A") (A") (A') (A') (A') (A') (A') (A') (A')
                 (A') (A')
 The electronic state is 2-A'.
 Alpha  occ. eigenvalues -- -102.69954-102.69856-102.69619 -10.64293 -10.63942
 Alpha  occ. eigenvalues --  -10.63758 -10.60389 -10.59579 -10.59372  -9.84295
 Alpha  occ. eigenvalues --   -9.84203  -9.83972  -7.56851  -7.56733  -7.56496
 Alpha  occ. eigenvalues --   -7.56111  -7.56108  -7.56041  -7.56012  -7.55792
 Alpha  occ. eigenvalues --   -7.55780  -1.05567  -1.01915  -0.98803  -0.94627
 Alpha  occ. eigenvalues --   -0.86624  -0.82729  -0.73603  -0.68819  -0.60509
 Alpha  occ. eigenvalues --   -0.59963  -0.56069  -0.53721  -0.52345  -0.50914
 Alpha  occ. eigenvalues --   -0.48327  -0.46970  -0.43681  -0.41497  -0.40068
 Alpha  occ. eigenvalues --   -0.39977  -0.39265  -0.33692  -0.33409  -0.30828
 Alpha virt. eigenvalues --   -0.02580  -0.01353  -0.00044   0.00957   0.01876
 Alpha virt. eigenvalues --    0.03180   0.04549   0.05316   0.05407   0.06503
 Alpha virt. eigenvalues --    0.06736   0.07236   0.08049   0.08456   0.08868
 Alpha virt. eigenvalues --    0.09480   0.11026   0.11498   0.11892   0.11923
 Alpha virt. eigenvalues --    0.12371   0.12765   0.12894   0.13400   0.14992
 Alpha virt. eigenvalues --    0.15041   0.15711   0.15907   0.17289   0.17692
 Alpha virt. eigenvalues --    0.18027   0.19042   0.19887   0.19965   0.21176
 Alpha virt. eigenvalues --    0.22233   0.22789   0.23937   0.24029   0.25172
 Alpha virt. eigenvalues --    0.25844   0.26355   0.28081   0.28197   0.29166
 Alpha virt. eigenvalues --    0.30567   0.31639   0.32184   0.32380   0.35134
 Alpha virt. eigenvalues --    0.43053   0.44350   0.45612   0.47110   0.47404
 Alpha virt. eigenvalues --    0.48576   0.49432   0.49746   0.50982   0.51804
 Alpha virt. eigenvalues --    0.53107   0.54378   0.56984   0.59059   0.59534
 Alpha virt. eigenvalues --    0.61019   0.61891   0.62523   0.63727   0.64796
 Alpha virt. eigenvalues --    0.66441   0.68679   0.69552   0.70175   0.72763
 Alpha virt. eigenvalues --    0.76338   0.79406   0.79646   0.85171   0.87116
 Alpha virt. eigenvalues --    0.87351   0.87362   0.88293   0.89020   0.90031
 Alpha virt. eigenvalues --    0.90390   0.90849   0.91600   0.92770   0.94285
 Alpha virt. eigenvalues --    0.95362   0.96501   0.97376   0.98717   0.99114
 Alpha virt. eigenvalues --    1.01958   1.03032   1.04344   1.07689   1.09148
 Alpha virt. eigenvalues --    1.11600   1.19587   1.20598   1.23824   1.26431
 Alpha virt. eigenvalues --    1.26858   1.29427   1.30240   1.33254   1.33953
 Alpha virt. eigenvalues --    1.36845   1.44246   1.49446   1.52941   1.58190
 Alpha virt. eigenvalues --    1.59701   1.65070   1.68150   1.72403   1.74746
 Alpha virt. eigenvalues --    1.77720   1.79358   1.85473   1.87979   1.92920
 Alpha virt. eigenvalues --    1.93519   1.98237   2.00341   2.01662   2.10087
 Alpha virt. eigenvalues --    2.10383   2.15464   2.21596   2.25885   2.27164
 Alpha virt. eigenvalues --    2.29305   2.30851   2.33076   2.35907   2.41952
 Alpha virt. eigenvalues --    2.43264   2.48034   2.50336   2.53000   2.54325
 Alpha virt. eigenvalues --    2.59542   2.63430   2.64975   2.66827   2.72324
 Alpha virt. eigenvalues --    2.75566   2.79297   2.79769   2.82384   2.90276
 Alpha virt. eigenvalues --    2.91580   2.94601   3.09120   3.13332   3.14856
 Alpha virt. eigenvalues --    3.23844   3.29830   3.34720   3.50020   3.53811
 Alpha virt. eigenvalues --    3.76014   3.85548   3.96050   4.12393   4.75637
 Alpha virt. eigenvalues --    9.93453   9.98728  10.00631  23.42576  23.84189
 Alpha virt. eigenvalues --   23.92409  24.01401  24.05909  24.19722  25.88437
 Alpha virt. eigenvalues --   25.92101  25.96869  26.17304  26.20629  26.32107
 Alpha virt. eigenvalues --   26.59244  26.71593  26.93955 216.03116 216.09034
 Alpha virt. eigenvalues --  216.11415
  Beta  occ. eigenvalues -- -102.69927-102.69841-102.69624 -10.64193 -10.63975
  Beta  occ. eigenvalues --  -10.63790 -10.59515 -10.59450 -10.59362  -9.84283
  Beta  occ. eigenvalues --   -9.84198  -9.83974  -7.56781  -7.56707  -7.56494
  Beta  occ. eigenvalues --   -7.56118  -7.56087  -7.56028  -7.56001  -7.55812
  Beta  occ. eigenvalues --   -7.55782  -1.05251  -1.01607  -0.98729  -0.93835
  Beta  occ. eigenvalues --   -0.85978  -0.81676  -0.73023  -0.67655  -0.59657
  Beta  occ. eigenvalues --   -0.59250  -0.55315  -0.53387  -0.52033  -0.50093
  Beta  occ. eigenvalues --   -0.47851  -0.46805  -0.43651  -0.41137  -0.39865
  Beta  occ. eigenvalues --   -0.39392  -0.38995  -0.33013  -0.30263
  Beta virt. eigenvalues --   -0.08222  -0.02599  -0.00302   0.00018   0.01012
  Beta virt. eigenvalues --    0.01747   0.03543   0.04630   0.05272   0.05335
  Beta virt. eigenvalues --    0.06178   0.06840   0.07219   0.07992   0.08794
  Beta virt. eigenvalues --    0.08887   0.09512   0.10978   0.11335   0.11566
  Beta virt. eigenvalues --    0.11919   0.12218   0.12826   0.12893   0.13439
  Beta virt. eigenvalues --    0.14768   0.15121   0.15624   0.16440   0.16978
  Beta virt. eigenvalues --    0.17876   0.18393   0.19246   0.19923   0.19971
  Beta virt. eigenvalues --    0.20925   0.22169   0.22962   0.23762   0.23974
  Beta virt. eigenvalues --    0.25134   0.25548   0.26642   0.28059   0.28454
  Beta virt. eigenvalues --    0.28491   0.30630   0.32046   0.32203   0.32803
  Beta virt. eigenvalues --    0.35793   0.42888   0.44528   0.45618   0.46720
  Beta virt. eigenvalues --    0.47485   0.48659   0.49624   0.49750   0.50992
  Beta virt. eigenvalues --    0.51885   0.53234   0.54567   0.56770   0.57769
  Beta virt. eigenvalues --    0.59262   0.60867   0.61091   0.61930   0.63701
  Beta virt. eigenvalues --    0.65002   0.67104   0.68514   0.69210   0.70755
  Beta virt. eigenvalues --    0.73332   0.75932   0.79359   0.79780   0.85220
  Beta virt. eigenvalues --    0.86668   0.87370   0.87496   0.88383   0.89085
  Beta virt. eigenvalues --    0.90091   0.90406   0.90850   0.91606   0.92538
  Beta virt. eigenvalues --    0.94291   0.95570   0.96234   0.97248   0.98713
  Beta virt. eigenvalues --    0.99329   1.02401   1.02994   1.04258   1.07394
  Beta virt. eigenvalues --    1.09806   1.12134   1.19342   1.22076   1.23618
  Beta virt. eigenvalues --    1.26066   1.26928   1.30057   1.30300   1.33242
  Beta virt. eigenvalues --    1.34239   1.37225   1.45754   1.50027   1.54031
  Beta virt. eigenvalues --    1.58489   1.59906   1.66032   1.68324   1.73590
  Beta virt. eigenvalues --    1.74866   1.78213   1.79912   1.85871   1.88059
  Beta virt. eigenvalues --    1.93519   1.93762   1.98766   2.00550   2.02104
  Beta virt. eigenvalues --    2.10391   2.10880   2.15602   2.21905   2.26459
  Beta virt. eigenvalues --    2.27163   2.29387   2.31233   2.33107   2.35884
  Beta virt. eigenvalues --    2.42360   2.43530   2.48189   2.50819   2.53364
  Beta virt. eigenvalues --    2.54576   2.59975   2.63819   2.65138   2.66945
  Beta virt. eigenvalues --    2.72299   2.75631   2.79763   2.80183   2.82390
  Beta virt. eigenvalues --    2.90427   2.91375   2.97002   3.09195   3.13716
  Beta virt. eigenvalues --    3.15854   3.24159   3.29962   3.35186   3.50555
  Beta virt. eigenvalues --    3.54205   3.76315   3.85599   3.96415   4.12719
  Beta virt. eigenvalues --    4.75846   9.93457   9.98732  10.00632  23.42699
  Beta virt. eigenvalues --   23.84316  23.92439  24.01568  24.05929  24.20382
  Beta virt. eigenvalues --   25.88434  25.92100  25.96863  26.17339  26.20651
  Beta virt. eigenvalues --   26.32119  26.59283  26.71759  26.93997 216.03131
  Beta virt. eigenvalues --  216.09070 216.11421
          Condensed to atoms (all electrons):
               1          2          3          4          5          6
     1  C   24.919196  -5.126999  -1.474116  -4.782874  -0.662844  -6.366136
     2  C   -5.126999  23.386267  -0.749187   2.742804 -13.464363  -0.131926
     3  C   -1.474116  -0.749187  15.603571  -2.007437  -1.228039  -3.786489
     4  C   -4.782874   2.742804  -2.007437  18.762763  -7.586883   0.429529
     5  C   -0.662844 -13.464363  -1.228039  -7.586883  37.917632  -9.405134
     6  C   -6.366136  -0.131926  -3.786489   0.429529  -9.405134  25.864490
     7  Cl   0.046440   0.687790  -0.008700   0.004702  -0.647507  -0.760682
     8  Cl  -1.028893  -0.558127   0.137436  -0.039065   0.758406   0.073138
     9  H   -0.105791   0.506639   0.088344  -0.057269  -0.083166  -0.022421
    10  Cl   0.214952   0.069968  -0.534995  -1.297801   0.711816  -0.026309
    11  H    0.010665  -0.120060  -0.013903  -0.183898   0.692165  -0.112680
               7          8          9         10         11
     1  C    0.046440  -1.028893  -0.105791   0.214952   0.010665
     2  C    0.687790  -0.558127   0.506639   0.069968  -0.120060
     3  C   -0.008700   0.137436   0.088344  -0.534995  -0.013903
     4  C    0.004702  -0.039065  -0.057269  -1.297801  -0.183898
     5  C   -0.647507   0.758406  -0.083166   0.711816   0.692165
     6  C   -0.760682   0.073138  -0.022421  -0.026309  -0.112680
     7  Cl  17.505582  -0.230384   0.000553  -0.015796   0.000143
     8  Cl  -0.230384  17.480628  -0.004130  -0.015184  -0.005093
     9  H    0.000553  -0.004130   0.468574  -0.003764  -0.000137
    10  Cl  -0.015796  -0.015184  -0.003764  17.486473   0.036360
    11  H    0.000143  -0.005093  -0.000137   0.036360   0.477482
          Atomic-Atomic Spin Densities.
               1          2          3          4          5          6
     1  C    0.267733  -0.592589   0.140649  -0.069054   0.168576   0.115603
     2  C   -0.592589   1.852508  -1.659035   1.524630  -1.145362   0.041557
     3  C    0.140649  -1.659035   2.191480  -1.123487   1.126432  -0.027574
     4  C   -0.069054   1.524630  -1.123487   0.964126  -1.494781   0.466127
     5  C    0.168576  -1.145362   1.126432  -1.494781   1.868772  -0.531731
     6  C    0.115603   0.041557  -0.027574   0.466127  -0.531731  -0.025999
     7  Cl   0.011017   0.042552  -0.045939   0.018232  -0.041702   0.012805
     8  Cl  -0.046527   0.126805  -0.054211   0.040967  -0.057989  -0.024141
     9  H   -0.012227  -0.016381   0.031757  -0.023410   0.003596   0.003676
    10  Cl   0.013153  -0.060748  -0.019611  -0.037381   0.128019  -0.041220
    11  H   -0.016891  -0.010490   0.043644  -0.014875   0.025824  -0.030103
               7          8          9         10         11
     1  C    0.011017  -0.046527  -0.012227   0.013153  -0.016891
     2  C    0.042552   0.126805  -0.016381  -0.060748  -0.010490
     3  C   -0.045939  -0.054211   0.031757  -0.019611   0.043644
     4  C    0.018232   0.040967  -0.023410  -0.037381  -0.014875
     5  C   -0.041702  -0.057989   0.003596   0.128019   0.025824
     6  C    0.012805  -0.024141   0.003676  -0.041220  -0.030103
     7  Cl  -0.007167   0.006332  -0.000785   0.001205  -0.001857
     8  Cl   0.006332   0.022413   0.001581  -0.000528  -0.000356
     9  H   -0.000785   0.001581   0.038094  -0.000714   0.000220
    10  Cl   0.001205  -0.000528  -0.000714   0.027350  -0.001138
    11  H   -0.001857  -0.000356   0.000220  -0.001138   0.016447
 Mulliken charges and spin densities:
               1          2
     1  C    0.356399  -0.020557
     2  C   -1.242807   0.103448
     3  C   -0.026487   0.604103
     4  C    0.015428   0.251094
     5  C   -1.002084   0.049655
     6  C    0.244620  -0.041002
     7  Cl   0.417856  -0.005307
     8  Cl   0.431268   0.014344
     9  H    0.212568   0.025408
    10  Cl   0.374281   0.008388
    11  H    0.218957   0.010426
 Sum of Mulliken charges =  -0.00000   1.00000
 Mulliken charges and spin densities with hydrogens summed into heavy atoms:
               1          2
     1  C    0.356399  -0.020557
     2  C   -1.030239   0.128856
     3  C   -0.026487   0.604103
     4  C    0.015428   0.251094
     5  C   -0.783127   0.060080
     6  C    0.244620  -0.041002
     7  Cl   0.417856  -0.005307
     8  Cl   0.431268   0.014344
    10  Cl   0.374281   0.008388
 Electronic spatial extent (au):  <R**2>=           2098.6319
 Charge=             -0.0000 electrons
 Dipole moment (field-independent basis, Debye):
    X=              0.0775    Y=              0.4677    Z=              0.0000  Tot=              0.4740
 Quadrupole moment (field-independent basis, Debye-Ang):
   XX=            -69.3881   YY=            -72.8424   ZZ=            -74.2115
   XY=              3.9951   XZ=              0.0000   YZ=              0.0000
 Traceless Quadrupole moment (field-independent basis, Debye-Ang):
   XX=              2.7592   YY=             -0.6951   ZZ=             -2.0641
   XY=              3.9951   XZ=              0.0000   YZ=              0.0000
 Octapole moment (field-independent basis, Debye-Ang**2):
  XXX=              0.3536  YYY=            -14.3713  ZZZ=              0.0000  XYY=              5.4040
  XXY=             -0.9387  XXZ=              0.0000  XZZ=             -0.0202  YZZ=             -4.3628
  YYZ=              0.0000  XYZ=              0.0000
 Hexadecapole moment (field-independent basis, Debye-Ang**3):
 XXXX=          -1353.5523 YYYY=          -1220.6093 ZZZZ=            -85.6451 XXXY=            292.8576
 XXXZ=              0.0000 YYYX=            306.4935 YYYZ=             -0.0000 ZZZX=              0.0000
 ZZZY=             -0.0000 XXYY=           -416.8792 XXZZ=           -256.6159 YYZZ=           -228.0306
 XXYZ=             -0.0000 YYXZ=              0.0000 ZZXY=            101.3619
 N-N= 6.168208073003D+02 E-N=-5.048005531268D+03  KE= 1.606558535062D+03
 Symmetry A'   KE= 1.462238875568D+03
 Symmetry A"   KE= 1.443196594939D+02
 Symmetry A'   SP= 9.999999999998D-01
 Symmetry A"   SP=-2.501389630146D-14
                          Isotropic Fermi Contact Couplings
        Atom                 a.u.       MegaHertz       Gauss      10(-4) cm-1
     1  C(13)              0.06659      74.85573      26.71038      24.96918
     2  C(13)              0.00643       7.22542       2.57821       2.41014
     3  C(13)              0.43123     484.78932     172.98488     161.70831
     4  C(13)             -0.01170     -13.15864      -4.69533      -4.38925
     5  C(13)              0.03669      41.24216      14.71623      13.75690
     6  C(13)             -0.01002     -11.26893      -4.02104      -3.75891
     7  Cl(35)             0.00180       0.79135       0.28237       0.26396
     8  Cl(35)             0.00070       0.30596       0.10917       0.10206
     9  H(1)               0.01286      57.48126      20.51074      19.17368
    10  Cl(35)             0.02019       8.85289       3.15893       2.95301
    11  H(1)               0.00451      20.15322       7.19117       6.72239
 --------------------------------------------------------
       Center         ----  Spin Dipole Couplings  ----
                      3XX-RR        3YY-RR        3ZZ-RR
 --------------------------------------------------------
     1   Atom       -0.037615      0.040034     -0.002418
     2   Atom        0.064354      0.034724     -0.099078
     3   Atom       -0.576266      0.972208     -0.395942
     4   Atom        0.091756      0.012705     -0.104461
     5   Atom       -0.032541      0.034884     -0.002343
     6   Atom        0.021785      0.036313     -0.058098
     7   Atom        0.016965      0.032183     -0.049148
     8   Atom       -0.023686      0.038915     -0.015229
     9   Atom        0.020865     -0.009092     -0.011773
    10   Atom        0.184916     -0.054822     -0.130094
    11   Atom        0.003317      0.001452     -0.004769
 --------------------------------------------------------
                        XY            XZ            YZ
 --------------------------------------------------------
     1   Atom        0.004818     -0.000000      0.000000
     2   Atom       -0.048639     -0.000000      0.000000
     3   Atom        0.004046     -0.000000      0.000000
     4   Atom        0.063374      0.000000      0.000000
     5   Atom        0.013674     -0.000000     -0.000000
     6   Atom       -0.000866     -0.000000     -0.000000
     7   Atom       -0.000689     -0.000000      0.000000
     8   Atom       -0.056592      0.000000     -0.000000
     9   Atom       -0.006287      0.000000      0.000000
    10   Atom       -0.038549     -0.000000      0.000000
    11   Atom        0.006708     -0.000000     -0.000000
 --------------------------------------------------------


 ---------------------------------------------------------------------------------
              Anisotropic Spin Dipole Couplings in Principal Axis System
 ---------------------------------------------------------------------------------

       Atom             a.u.   MegaHertz   Gauss  10(-4) cm-1        Axes

              Baa    -0.0379    -5.088    -1.815    -1.697  0.9981 -0.0617  0.0000
     1 C(13)  Bbb    -0.0024    -0.325    -0.116    -0.108  0.0000  0.0000  1.0000
              Bcc     0.0403     5.412     1.931     1.805  0.0617  0.9981 -0.0000
 
              Baa    -0.0991   -13.295    -4.744    -4.435  0.0000  0.0000  1.0000
     2 C(13)  Bbb    -0.0013    -0.175    -0.063    -0.058  0.5952  0.8035  0.0000
              Bcc     0.1004    13.471     4.807     4.493  0.8035 -0.5952  0.0000
 
              Baa    -0.5763   -77.331   -27.594   -25.795  1.0000 -0.0026  0.0000
     3 C(13)  Bbb    -0.3959   -53.132   -18.959   -17.723  0.0000  0.0000  1.0000
              Bcc     0.9722   130.462    46.552    43.518  0.0026  1.0000 -0.0000
 
              Baa    -0.1045   -14.018    -5.002    -4.676  0.0000  0.0000  1.0000
     4 C(13)  Bbb    -0.0225    -3.014    -1.075    -1.005 -0.4852  0.8744  0.0000
              Bcc     0.1269    17.031     6.077     5.681  0.8744  0.4852 -0.0000
 
              Baa    -0.0352    -4.725    -1.686    -1.576  0.9815 -0.1915 -0.0000
     5 C(13)  Bbb    -0.0023    -0.314    -0.112    -0.105  0.0000  0.0000  1.0000
              Bcc     0.0376     5.039     1.798     1.681  0.1915  0.9815 -0.0000
 
              Baa    -0.0581    -7.796    -2.782    -2.601  0.0000  0.0000  1.0000
     6 C(13)  Bbb     0.0217     2.916     1.041     0.973  0.9982  0.0593  0.0000
              Bcc     0.0364     4.880     1.741     1.628 -0.0593  0.9982 -0.0000
 
              Baa    -0.0491    -2.572    -0.918    -0.858  0.0000  0.0000  1.0000
     7 Cl(35) Bbb     0.0169     0.886     0.316     0.296  0.9990  0.0452  0.0000
              Bcc     0.0322     1.686     0.602     0.562 -0.0452  0.9990 -0.0000
 
              Baa    -0.0571    -2.986    -1.066    -0.996  0.8614  0.5079 -0.0000
     8 Cl(35) Bbb    -0.0152    -0.797    -0.284    -0.266  0.0000  0.0000  1.0000
              Bcc     0.0723     3.783     1.350     1.262 -0.5079  0.8614 -0.0000
 
              Baa    -0.0118    -6.281    -2.241    -2.095  0.0000  0.0000  1.0000
     9 H(1)   Bbb    -0.0104    -5.526    -1.972    -1.843  0.1974  0.9803 -0.0000
              Bcc     0.0221    11.808     4.213     3.939  0.9803 -0.1974 -0.0000
 
              Baa    -0.1301    -6.809    -2.430    -2.271  0.0000  0.0000  1.0000
    10 Cl(35) Bbb    -0.0609    -3.186    -1.137    -1.063  0.1549  0.9879  0.0000
              Bcc     0.1910     9.994     3.566     3.334  0.9879 -0.1549  0.0000
 
              Baa    -0.0048    -2.544    -0.908    -0.849  0.0000  0.0000  1.0000
    11 H(1)   Bbb    -0.0044    -2.341    -0.835    -0.781 -0.6566  0.7542 -0.0000
              Bcc     0.0092     4.886     1.743     1.630  0.7542  0.6566 -0.0000
 

 ---------------------------------------------------------------------------------

 Calling FoFJK, ICntrl=      2127 FMM=F ISym2X=1 I1Cent= 0 IOpClX= 1 NMat=1 NMatS=1 NMatT=0.
 ***** Axes restored to original set *****
 -------------------------------------------------------------------
 Center     Atomic                   Forces (Hartrees/Bohr)
 Number     Number              X              Y              Z
 -------------------------------------------------------------------
      1        6           0.028256399   -0.011717993   -0.000000000
      2        6          -0.006777785   -0.009226038   -0.000000000
      3        6           0.010862583    0.003339932   -0.000000000
      4        6          -0.044794902    0.011065181    0.000000000
      5        6           0.005047856    0.004423709   -0.000000000
      6        6           0.024173684    0.013671000   -0.000000000
      7       17          -0.017364625   -0.011152804    0.000000000
      8       17          -0.019385612    0.010238427    0.000000000
      9        1          -0.001890538   -0.010746833   -0.000000000
     10       17           0.023212495   -0.011448509   -0.000000000
     11        1          -0.001339557    0.011553929    0.000000000
 -------------------------------------------------------------------
 Cartesian Forces:  Max     0.044794902 RMS     0.013452572

 GradGradGradGradGradGradGradGradGradGradGradGradGradGradGradGradGradGrad
 Berny optimization.
 FormGI is forming the generalized inverse of G from B-inverse, IUseBI=4.
 Internal  Forces:  Max     0.025880543 RMS     0.007809010
 Search for a local minimum.
 Step number   1 out of a maximum of   57
 All quantities printed in internal units (Hartrees-Bohrs-Radians)
 Mixed Optimization -- RFO/linear search
 Second derivative matrix not updated -- first step.
 ITU=  0
     Eigenvalues ---    0.01892   0.01922   0.01936   0.01966   0.01994
     Eigenvalues ---    0.02077   0.02122   0.02376   0.16000   0.16000
     Eigenvalues ---    0.22927   0.23946   0.25000   0.25000   0.25000
     Eigenvalues ---    0.25000   0.33640   0.33887   0.36680   0.37436
     Eigenvalues ---    0.38288   0.40519   0.41576   0.43498   0.43906
     Eigenvalues ---    0.48477   0.50617
 RFO step:  Lambda=-7.79141594D-03 EMin= 1.89185921D-02
 Linear search not attempted -- first point.
 Iteration  1 RMS(Cart)=  0.02389511 RMS(Int)=  0.00022248
 Iteration  2 RMS(Cart)=  0.00028819 RMS(Int)=  0.00004800
 Iteration  3 RMS(Cart)=  0.00000005 RMS(Int)=  0.00004800
 ClnCor:  largest displacement from symmetrization is 3.62D-09 for atom     7.
 Variable       Old X    -DE/DX   Delta X   Delta X   Delta X     New X
                                 (Linear)    (Quad)   (Total)
    R1        2.67329  -0.01139   0.00000  -0.02578  -0.02579   2.64750
    R2        2.67417  -0.01225   0.00000  -0.02827  -0.02834   2.64583
    R3        3.18895   0.02192   0.00000   0.05736   0.05736   3.24630
    R4        2.58348  -0.00347   0.00000  -0.00620  -0.00614   2.57735
    R5        2.07520  -0.01076   0.00000  -0.03103  -0.03103   2.04417
    R6        2.60164  -0.00685   0.00000  -0.01317  -0.01310   2.58854
    R7        2.66768  -0.01406   0.00000  -0.03168  -0.03166   2.63602
    R8        3.17649   0.02588   0.00000   0.06625   0.06625   3.24274
    R9        2.65918  -0.01248   0.00000  -0.02809  -0.02815   2.63103
   R10        2.07942  -0.01158   0.00000  -0.03364  -0.03364   2.04578
   R11        3.20031   0.02064   0.00000   0.05509   0.05509   3.25541
    A1        2.08468  -0.00047   0.00000  -0.00332  -0.00342   2.08127
    A2        2.07935   0.00099   0.00000   0.00458   0.00463   2.08397
    A3        2.11916  -0.00052   0.00000  -0.00126  -0.00121   2.11794
    A4        2.01060   0.00759   0.00000   0.03346   0.03350   2.04410
    A5        2.13106  -0.00570   0.00000  -0.02807  -0.02809   2.10297
    A6        2.14152  -0.00189   0.00000  -0.00539  -0.00541   2.13612
    A7        2.25159  -0.01328   0.00000  -0.05070  -0.05053   2.20106
    A8        2.01166   0.00524   0.00000   0.01995   0.02003   2.03169
    A9        2.14466  -0.00307   0.00000  -0.01174  -0.01178   2.13288
   A10        2.12687  -0.00217   0.00000  -0.00821  -0.00825   2.11861
   A11        2.08581   0.00369   0.00000   0.01394   0.01389   2.09970
   A12        2.09767  -0.00068   0.00000  -0.00002   0.00001   2.09768
   A13        2.09970  -0.00301   0.00000  -0.01393  -0.01390   2.08580
   A14        2.12202  -0.00278   0.00000  -0.01333  -0.01347   2.10855
   A15        2.10001   0.00142   0.00000   0.00677   0.00684   2.10684
   A16        2.06116   0.00136   0.00000   0.00656   0.00663   2.06779
    D1       -0.00000   0.00000   0.00000  -0.00000   0.00000   0.00000
    D2        3.14159   0.00000   0.00000  -0.00000   0.00000   3.14159
    D3        3.14159   0.00000   0.00000   0.00000   0.00000   3.14159
    D4       -0.00000   0.00000   0.00000  -0.00000   0.00000   0.00000
    D5       -0.00000   0.00000   0.00000   0.00000   0.00000   0.00000
    D6        3.14159   0.00000   0.00000   0.00000   0.00000   3.14159
    D7        3.14159   0.00000   0.00000   0.00000   0.00000   3.14159
    D8       -0.00000   0.00000   0.00000   0.00000   0.00000   0.00000
    D9        0.00000  -0.00000   0.00000  -0.00000  -0.00000   0.00000
   D10        3.14159  -0.00000   0.00000   0.00000   0.00000   3.14159
   D11        0.00000  -0.00000   0.00000   0.00000  -0.00000   0.00000
   D12        3.14159  -0.00000   0.00000  -0.00000   0.00000   3.14159
   D13       -0.00000   0.00000   0.00000   0.00000   0.00000   0.00000
   D14        3.14159  -0.00000   0.00000  -0.00000   0.00000   3.14159
   D15        3.14159   0.00000   0.00000   0.00000   0.00000   3.14159
   D16        0.00000   0.00000   0.00000   0.00000  -0.00000   0.00000
   D17       -0.00000  -0.00000   0.00000  -0.00000   0.00000   0.00000
   D18        3.14159  -0.00000   0.00000  -0.00000   0.00000   3.14159
   D19        3.14159  -0.00000   0.00000   0.00000   0.00000   3.14159
   D20       -0.00000  -0.00000   0.00000  -0.00000   0.00000   0.00000
         Item               Value     Threshold  Converged?
 Maximum Force            0.025881     0.000450     NO 
 RMS     Force            0.007809     0.000300     NO 
 Maximum Displacement     0.082736     0.001800     NO 
 RMS     Displacement     0.023915     0.001200     NO 
 Predicted change in Energy=-3.981373D-03
 GradGradGradGradGradGradGradGradGradGradGradGradGradGradGradGradGradGrad

                          Input orientation:                          
 ---------------------------------------------------------------------
 Center     Atomic      Atomic             Coordinates (Angstroms)
 Number     Number       Type             X           Y           Z
 ---------------------------------------------------------------------
      1          6           0       -3.210995    0.201150    0.000000
      2          6           0       -2.015209    0.931145    0.000000
      3          6           0       -0.852051    0.218956   -0.000000
      4          6           0       -0.741413   -1.146363   -0.000000
      5          6           0       -1.936592   -1.865638   -0.000000
      6          6           0       -3.158343   -1.197973    0.000000
      7         17           0       -4.605259   -2.132896    0.000000
      8         17           0       -4.710647    1.039074    0.000000
      9          1           0       -2.032422    2.012739    0.000000
     10         17           0        0.779682   -1.940633   -0.000000
     11          1           0       -1.920501   -2.948100   -0.000000
 ---------------------------------------------------------------------
                    Distance matrix (angstroms):
                    1          2          3          4          5
     1  C    0.000000
     2  C    1.400998   0.000000
     3  C    2.359011   1.363874   0.000000
     4  C    2.813294   2.436924   1.369794   0.000000
     5  C    2.428109   2.797888   2.349843   1.394923   0.000000
     6  C    1.400113   2.416588   2.706782   2.417480   1.392283
     7  Cl   2.718776   4.012070   4.429196   3.987801   2.682016
     8  Cl   1.717869   2.697597   3.944789   4.531109   4.016557
     9  H    2.161224   1.081730   2.147309   3.412715   3.879560
    10  Cl   4.529098   4.007309   2.706727   1.715982   2.717309
    11  H    3.403403   3.880402   3.342429   2.153255   1.082582
                    6          7          8          9         10
     6  C    0.000000
     7  Cl   1.722686   0.000000
     8  Cl   2.722872   3.173721   0.000000
     9  H    3.402406   4.879117   2.849721   0.000000
    10  Cl   4.007440   5.388372   6.246788   4.851502   0.000000
    11  H    2.143641   2.805794   4.866464   4.962102   2.882009
                   11
    11  H    0.000000
 Stoichiometry    C6H2Cl3(2)
 Framework group  CS[SG(C6H2Cl3)]
 Deg. of freedom    19
 Full point group                 CS      NOp   2
 Largest Abelian subgroup         CS      NOp   2
 Largest concise Abelian subgroup C1      NOp   1
                         Standard orientation:                         
 ---------------------------------------------------------------------
 Center     Atomic      Atomic             Coordinates (Angstroms)
 Number     Number       Type             X           Y           Z
 ---------------------------------------------------------------------
      1          6           0        1.221698   -0.112916    0.000000
      2          6           0        1.221859    1.288083    0.000000
      3          6           0        0.007991    1.909917    0.000000
      4          6           0       -1.215060    1.293084    0.000000
      5          6           0       -1.206386   -0.101811   -0.000000
      6          6           0        0.000000   -0.796854   -0.000000
      7         17           0       -0.044255   -2.518972   -0.000000
      8         17           0        2.718189   -0.956472    0.000000
      9          1           0        2.154056    1.836853    0.000000
     10         17           0       -2.685459    2.177686    0.000000
     11          1           0       -2.138741   -0.651992   -0.000000
 ---------------------------------------------------------------------
 Rotational constants (GHZ):           1.9110926           0.6004829           0.4569158
 Standard basis: 6-311++G(d,p) (5D, 7F)
 There are   183 symmetry adapted cartesian basis functions of A'  symmetry.
 There are    62 symmetry adapted cartesian basis functions of A"  symmetry.
 There are   174 symmetry adapted basis functions of A'  symmetry.
 There are    62 symmetry adapted basis functions of A"  symmetry.
   236 basis functions,   393 primitive gaussians,   245 cartesian basis functions
    45 alpha electrons       44 beta electrons
       nuclear repulsion energy       614.8779163784 Hartrees.
 NAtoms=   11 NActive=   11 NUniq=   11 SFac= 1.00D+00 NAtFMM=   60 NAOKFM=F Big=F
 Integral buffers will be    131072 words long.
 Raffenetti 2 integral format.
 Two-electron integral symmetry is turned on.
 One-electron integrals computed using PRISM.
 NBasis=   236 RedAO= T EigKep=  1.10D-06  NBF=   174    62
 NBsUse=   236 1.00D-06 EigRej= -1.00D+00 NBFU=   174    62
 Initial guess from the checkpoint file:  "frequency_chks/12_5ClBzNeutralRadical_Freq.chk"
 B after Tr=     0.000000    0.000000    0.000000
         Rot=    0.999998   -0.000000    0.000000    0.002068 Ang=   0.24 deg.
 Initial guess orbital symmetries:
 Alpha Orbitals:
       Occupied  (A') (A') (A') (A') (A') (A') (A') (A') (A') (A')
                 (A') (A') (A') (A') (A') (A") (A') (A") (A') (A")
                 (A') (A') (A') (A') (A') (A') (A') (A') (A') (A')
                 (A') (A') (A') (A") (A') (A') (A") (A") (A') (A')
                 (A") (A') (A') (A") (A")
       Virtual   (A") (A") (A') (A') (A') (A') (A') (A') (A") (A')
                 (A") (A') (A") (A') (A') (A') (A") (A') (A") (A')
                 (A') (A') (A") (A') (A") (A') (A') (A") (A') (A')
                 (A") (A') (A") (A') (A') (A') (A') (A') (A') (A')
                 (A') (A') (A') (A') (A') (A') (A') (A') (A') (A')
                 (A') (A') (A") (A') (A") (A') (A') (A") (A') (A')
                 (A') (A") (A') (A") (A') (A") (A") (A') (A") (A')
                 (A') (A") (A') (A') (A') (A') (A') (A") (A') (A')
                 (A") (A') (A') (A') (A") (A') (A") (A") (A') (A")
                 (A') (A') (A') (A') (A') (A") (A') (A') (A') (A")
                 (A') (A') (A") (A') (A') (A') (A") (A') (A') (A")
                 (A") (A') (A') (A') (A") (A') (A') (A") (A') (A')
                 (A') (A") (A') (A") (A") (A') (A') (A") (A') (A")
                 (A') (A') (A') (A') (A") (A") (A") (A") (A') (A')
                 (A') (A') (A') (A') (A') (A') (A') (A') (A") (A')
                 (A') (A") (A') (A") (A") (A") (A') (A") (A') (A')
                 (A') (A') (A') (A') (A') (A') (A') (A') (A') (A')
                 (A') (A') (A') (A') (A') (A') (A') (A') (A') (A")
                 (A") (A") (A') (A') (A') (A') (A') (A') (A') (A')
                 (A')
 Beta  Orbitals:
       Occupied  (A') (A') (A') (A') (A') (A') (A') (A') (A') (A')
                 (A') (A') (A') (A') (A') (A") (A') (A") (A') (A")
                 (A') (A') (A') (A') (A') (A') (A') (A') (A') (A')
                 (A') (A') (A') (A") (A') (A') (A") (A") (A') (A')
                 (A") (A') (A") (A")
       Virtual   (A') (A") (A") (A') (A') (A') (A') (A') (A") (A')
                 (A') (A") (A') (A") (A') (A') (A') (A") (A') (A")
                 (A') (A') (A') (A") (A') (A") (A') (A') (A") (A')
                 (A') (A") (A') (A') (A") (A') (A') (A') (A') (A')
                 (A') (A') (A') (A') (A') (A') (A') (A') (A') (A')
                 (A') (A') (A') (A") (A') (A") (A') (A') (A") (A')
                 (A') (A') (A") (A') (A') (A") (A') (A") (A") (A")
                 (A') (A') (A") (A') (A') (A') (A') (A') (A") (A')
                 (A') (A') (A") (A') (A') (A") (A') (A") (A") (A')
                 (A") (A') (A') (A') (A') (A') (A") (A') (A') (A')
                 (A") (A') (A') (A") (A') (A') (A') (A') (A") (A')
                 (A") (A") (A') (A') (A') (A") (A') (A') (A") (A')
                 (A') (A') (A") (A') (A") (A") (A') (A') (A") (A')
                 (A") (A') (A') (A') (A') (A") (A") (A") (A") (A')
                 (A') (A') (A') (A') (A') (A') (A') (A') (A') (A")
                 (A') (A') (A") (A') (A") (A") (A") (A') (A") (A')
                 (A') (A') (A') (A') (A') (A') (A') (A') (A') (A')
                 (A') (A') (A') (A') (A') (A') (A') (A') (A') (A')
                 (A") (A") (A") (A') (A') (A') (A') (A') (A') (A')
                 (A') (A')
 Initial guess <Sx>= 0.0000 <Sy>= 0.0000 <Sz>= 0.5000 <S**2>= 0.7632 S= 0.5066
 ExpMin= 3.60D-02 ExpMax= 1.06D+05 ExpMxC= 3.62D+03 IAcc=3 IRadAn=         5 AccDes= 0.00D+00
 Harris functional with IExCor= 1009 and IRadAn=       5 diagonalized for initial guess.
 HarFok:  IExCor= 1009 AccDes= 0.00D+00 IRadAn=         5 IDoV= 1 UseB2=F ITyADJ=14
 ICtDFT=  3500011 ScaDFX=  1.000000  1.000000  1.000000  1.000000
 FoFCou: FMM=F IPFlag=           0 FMFlag=      100000 FMFlg1=           0
         NFxFlg=           0 DoJE=T BraDBF=F KetDBF=T FulRan=T
         wScrn=  0.000000 ICntrl=       500 IOpCl=  0 I1Cent=   200000004 NGrid=           0
         NMat0=    1 NMatS0=      1 NMatT0=    0 NMatD0=    1 NMtDS0=    0 NMtDT0=    0
 Petite list used in FoFCou.
 Keep R1 and R2 ints in memory in symmetry-blocked form, NReq=617299900.
 Requested convergence on RMS density matrix=1.00D-08 within 128 cycles.
 Requested convergence on MAX density matrix=1.00D-06.
 Requested convergence on             energy=1.00D-06.
 No special actions if energy rises.
 SCF Done:  E(UM062X) =  -1610.30496019     A.U. after   17 cycles
            NFock= 17  Conv=0.58D-08     -V/T= 2.0023
 <Sx>= 0.0000 <Sy>= 0.0000 <Sz>= 0.5000 <S**2>= 0.7628 S= 0.5064
 <L.S>=  0.00000000000    
 Annihilation of the first spin contaminant:
 S**2 before annihilation     0.7628,   after     0.7501
 Calling FoFJK, ICntrl=      2127 FMM=F ISym2X=1 I1Cent= 0 IOpClX= 1 NMat=1 NMatS=1 NMatT=0.
 ***** Axes restored to original set *****
 -------------------------------------------------------------------
 Center     Atomic                   Forces (Hartrees/Bohr)
 Number     Number              X              Y              Z
 -------------------------------------------------------------------
      1        6           0.006968652   -0.003082422   -0.000000000
      2        6          -0.004501774   -0.002028580    0.000000000
      3        6           0.006678109    0.001533463   -0.000000000
      4        6          -0.013875783    0.003596849    0.000000000
      5        6           0.002743776   -0.001743252   -0.000000000
      6        6           0.003607240    0.004537467   -0.000000000
      7       17          -0.003422447   -0.002669896    0.000000000
      8       17          -0.004156069    0.002884003    0.000000000
      9        1          -0.000601571    0.000851577    0.000000000
     10       17           0.006571899   -0.003488691   -0.000000000
     11        1          -0.000012032   -0.000390518   -0.000000000
 -------------------------------------------------------------------
 Cartesian Forces:  Max     0.013875783 RMS     0.003814122

 GradGradGradGradGradGradGradGradGradGradGradGradGradGradGradGradGradGrad
 Berny optimization.
 Using GEDIIS/GDIIS optimizer.
 FormGI is forming the generalized inverse of G from B-inverse, IUseBI=4.
 Internal  Forces:  Max     0.007439795 RMS     0.001886588
 Search for a local minimum.
 Step number   2 out of a maximum of   57
 All quantities printed in internal units (Hartrees-Bohrs-Radians)
 Mixed Optimization -- RFO/linear search
 Update second derivatives using D2CorX and points    1    2
 DE= -4.61D-03 DEPred=-3.98D-03 R= 1.16D+00
 TightC=F SS=  1.41D+00  RLast= 1.49D-01 DXNew= 5.0454D-01 4.4573D-01
 Trust test= 1.16D+00 RLast= 1.49D-01 DXMaxT set to 4.46D-01
 ITU=  1  0
 Use linear search instead of GDIIS.
     Eigenvalues ---    0.01892   0.01922   0.01936   0.01966   0.01993
     Eigenvalues ---    0.02079   0.02125   0.02368   0.15926   0.16008
     Eigenvalues ---    0.21350   0.23624   0.24431   0.25000   0.25000
     Eigenvalues ---    0.25082   0.32596   0.33749   0.35039   0.36970
     Eigenvalues ---    0.37868   0.40421   0.41676   0.43246   0.43916
     Eigenvalues ---    0.49346   0.51269
 RFO step:  Lambda=-3.38958782D-04 EMin= 1.89186968D-02
 Quartic linear search produced a step of  0.23651.
 Iteration  1 RMS(Cart)=  0.00671833 RMS(Int)=  0.00004640
 Iteration  2 RMS(Cart)=  0.00005852 RMS(Int)=  0.00002356
 Iteration  3 RMS(Cart)=  0.00000000 RMS(Int)=  0.00002356
 ClnCor:  largest displacement from symmetrization is 3.82D-11 for atom     7.
 Variable       Old X    -DE/DX   Delta X   Delta X   Delta X     New X
                                 (Linear)    (Quad)   (Total)
    R1        2.64750  -0.00225  -0.00610  -0.00151  -0.00762   2.63988
    R2        2.64583  -0.00110  -0.00670   0.00208  -0.00466   2.64117
    R3        3.24630   0.00504   0.01356   0.00549   0.01906   3.26536
    R4        2.57735   0.00240  -0.00145   0.00712   0.00569   2.58304
    R5        2.04417   0.00086  -0.00734   0.00916   0.00182   2.04600
    R6        2.58854   0.00093  -0.00310   0.00509   0.00202   2.59056
    R7        2.63602  -0.00241  -0.00749  -0.00060  -0.00808   2.62794
    R8        3.24274   0.00744   0.01567   0.01116   0.02683   3.26956
    R9        2.63103  -0.00040  -0.00666   0.00415  -0.00253   2.62850
   R10        2.04578   0.00039  -0.00795   0.00796   0.00000   2.04579
   R11        3.25541   0.00432   0.01303   0.00388   0.01691   3.27231
    A1        2.08127   0.00126  -0.00081   0.00632   0.00546   2.08673
    A2        2.08397  -0.00142   0.00109  -0.00760  -0.00648   2.07749
    A3        2.11794   0.00015  -0.00029   0.00128   0.00102   2.11896
    A4        2.04410   0.00074   0.00792  -0.00208   0.00586   2.04996
    A5        2.10297  -0.00098  -0.00664  -0.00144  -0.00809   2.09488
    A6        2.13612   0.00024  -0.00128   0.00351   0.00223   2.13834
    A7        2.20106  -0.00421  -0.01195  -0.00982  -0.02169   2.17937
    A8        2.03169   0.00373   0.00474   0.01516   0.01994   2.05163
    A9        2.13288  -0.00179  -0.00279  -0.00689  -0.00970   2.12318
   A10        2.11861  -0.00193  -0.00195  -0.00826  -0.01024   2.10838
   A11        2.09970  -0.00153   0.00328  -0.01147  -0.00821   2.09149
   A12        2.09768   0.00078   0.00000   0.00448   0.00449   2.10218
   A13        2.08580   0.00075  -0.00329   0.00700   0.00372   2.08952
   A14        2.10855   0.00001  -0.00319   0.00190  -0.00136   2.10719
   A15        2.10684   0.00063   0.00162   0.00218   0.00383   2.11068
   A16        2.06779  -0.00064   0.00157  -0.00408  -0.00248   2.06532
    D1        0.00000   0.00000   0.00000   0.00000  -0.00000   0.00000
    D2        3.14159   0.00000   0.00000   0.00000   0.00000   3.14159
    D3        3.14159   0.00000   0.00000   0.00000   0.00000   3.14159
    D4       -0.00000   0.00000   0.00000   0.00000   0.00000   0.00000
    D5       -0.00000  -0.00000   0.00000  -0.00000   0.00000   0.00000
    D6        3.14159  -0.00000   0.00000  -0.00000   0.00000   3.14159
    D7        3.14159  -0.00000   0.00000  -0.00000   0.00000   3.14159
    D8        0.00000  -0.00000   0.00000  -0.00000  -0.00000   0.00000
    D9        0.00000  -0.00000   0.00000  -0.00000   0.00000   0.00000
   D10        3.14159   0.00000   0.00000   0.00000   0.00000   3.14159
   D11       -0.00000  -0.00000   0.00000  -0.00000   0.00000   0.00000
   D12        3.14159  -0.00000   0.00000  -0.00000   0.00000   3.14159
   D13        0.00000   0.00000   0.00000   0.00000   0.00000   0.00000
   D14        3.14159   0.00000   0.00000   0.00000   0.00000   3.14159
   D15        3.14159   0.00000   0.00000   0.00000   0.00000   3.14159
   D16        0.00000   0.00000   0.00000   0.00000   0.00000   0.00000
   D17       -0.00000  -0.00000   0.00000   0.00000   0.00000   0.00000
   D18        3.14159  -0.00000   0.00000   0.00000   0.00000   3.14159
   D19        3.14159   0.00000   0.00000   0.00000   0.00000   3.14159
   D20       -0.00000   0.00000   0.00000   0.00000   0.00000   0.00000
         Item               Value     Threshold  Converged?
 Maximum Force            0.007440     0.000450     NO 
 RMS     Force            0.001887     0.000300     NO 
 Maximum Displacement     0.020187     0.001800     NO 
 RMS     Displacement     0.006716     0.001200     NO 
 Predicted change in Energy=-3.370949D-04
 GradGradGradGradGradGradGradGradGradGradGradGradGradGradGradGradGradGrad

                          Input orientation:                          
 ---------------------------------------------------------------------
 Center     Atomic      Atomic             Coordinates (Angstroms)
 Number     Number       Type             X           Y           Z
 ---------------------------------------------------------------------
      1          6           0       -3.204716    0.198830    0.000000
      2          6           0       -2.014286    0.929849    0.000000
      3          6           0       -0.842545    0.225999   -0.000000
      4          6           0       -0.749875   -1.141730   -0.000000
      5          6           0       -1.936537   -1.866802   -0.000000
      6          6           0       -3.156123   -1.197972    0.000000
      7         17           0       -4.609619   -2.139195    0.000000
      8         17           0       -4.709907    1.047490    0.000000
      9          1           0       -2.043104    2.012159    0.000000
     10         17           0        0.780986   -1.947943   -0.000000
     11          1           0       -1.918025   -2.949226   -0.000000
 ---------------------------------------------------------------------
                    Distance matrix (angstroms):
                    1          2          3          4          5
     1  C    0.000000
     2  C    1.396965   0.000000
     3  C    2.362327   1.366887   0.000000
     4  C    2.797024   2.426967   1.370865   0.000000
     5  C    2.423863   2.797731   2.361490   1.390646   0.000000
     6  C    1.397647   2.414832   2.716677   2.406905   1.390943
     7  Cl   2.727657   4.019301   4.448031   3.986548   2.686925
     8  Cl   1.727954   2.698187   3.953648   4.524880   4.023019
     9  H    2.153487   1.082694   2.152141   3.408733   3.880425
    10  Cl   4.527080   4.011886   2.713278   1.730178   2.718734
    11  H    3.400858   3.880269   3.352419   2.152120   1.082583
                    6          7          8          9         10
     6  C    0.000000
     7  Cl   1.731633   0.000000
     8  Cl   2.730631   3.188263   0.000000
     9  H    3.397610   4.880649   2.835916   0.000000
    10  Cl   4.007903   5.393997   6.254800   4.863939   0.000000
    11  H    2.144710   2.810842   4.875280   4.962962   2.878755
                   11
    11  H    0.000000
 Stoichiometry    C6H2Cl3(2)
 Framework group  CS[SG(C6H2Cl3)]
 Deg. of freedom    19
 Full point group                 CS      NOp   2
 Largest Abelian subgroup         CS      NOp   2
 Largest concise Abelian subgroup C1      NOp   1
                         Standard orientation:                         
 ---------------------------------------------------------------------
 Center     Atomic      Atomic             Coordinates (Angstroms)
 Number     Number       Type             X           Y           Z
 ---------------------------------------------------------------------
      1          6           0        1.217085   -0.107713    0.000000
      2          6           0        1.219858    1.289249   -0.000000
      3          6           0        0.008162    1.921841   -0.000000
      4          6           0       -1.207109    1.287503   -0.000000
      5          6           0       -1.206774   -0.103144    0.000000
      6          6           0        0.000000   -0.794823    0.000000
      7         17           0       -0.044903   -2.525874    0.000000
      8         17           0        2.726260   -0.949270    0.000000
      9          1           0        2.158308    1.829192   -0.000000
     10         17           0       -2.693457    2.173101   -0.000000
     11          1           0       -2.139945   -0.651940    0.000000
 ---------------------------------------------------------------------
 Rotational constants (GHZ):           1.8970827           0.5997174           0.4556687
 Standard basis: 6-311++G(d,p) (5D, 7F)
 There are   183 symmetry adapted cartesian basis functions of A'  symmetry.
 There are    62 symmetry adapted cartesian basis functions of A"  symmetry.
 There are   174 symmetry adapted basis functions of A'  symmetry.
 There are    62 symmetry adapted basis functions of A"  symmetry.
   236 basis functions,   393 primitive gaussians,   245 cartesian basis functions
    45 alpha electrons       44 beta electrons
       nuclear repulsion energy       613.7839024032 Hartrees.
 NAtoms=   11 NActive=   11 NUniq=   11 SFac= 1.00D+00 NAtFMM=   60 NAOKFM=F Big=F
 Integral buffers will be    131072 words long.
 Raffenetti 2 integral format.
 Two-electron integral symmetry is turned on.
 One-electron integrals computed using PRISM.
 NBasis=   236 RedAO= T EigKep=  1.11D-06  NBF=   174    62
 NBsUse=   236 1.00D-06 EigRej= -1.00D+00 NBFU=   174    62
 Initial guess from the checkpoint file:  "frequency_chks/12_5ClBzNeutralRadical_Freq.chk"
 B after Tr=     0.000000   -0.000000    0.000000
         Rot=    1.000000   -0.000000   -0.000000   -0.000884 Ang=  -0.10 deg.
 Initial guess orbital symmetries:
 Alpha Orbitals:
       Occupied  (A') (A') (A') (A') (A') (A') (A') (A') (A') (A')
                 (A') (A') (A') (A') (A') (A") (A') (A") (A') (A")
                 (A') (A') (A') (A') (A') (A') (A') (A') (A') (A')
                 (A') (A') (A') (A") (A') (A') (A") (A") (A') (A')
                 (A") (A') (A') (A") (A")
       Virtual   (A") (A") (A') (A') (A') (A') (A') (A') (A") (A')
                 (A") (A') (A") (A') (A') (A') (A") (A') (A') (A")
                 (A') (A') (A") (A') (A') (A") (A') (A") (A') (A')
                 (A") (A') (A') (A") (A') (A') (A') (A') (A') (A')
                 (A') (A') (A') (A') (A') (A') (A') (A') (A') (A')
                 (A') (A') (A") (A') (A") (A') (A') (A") (A') (A')
                 (A') (A") (A') (A") (A') (A") (A") (A') (A") (A')
                 (A') (A") (A') (A') (A') (A') (A') (A") (A') (A')
                 (A') (A") (A') (A') (A') (A") (A") (A") (A') (A')
                 (A") (A') (A') (A') (A') (A") (A') (A') (A') (A")
                 (A') (A') (A") (A') (A') (A') (A") (A') (A") (A')
                 (A") (A') (A') (A') (A") (A') (A') (A") (A') (A')
                 (A') (A") (A') (A") (A") (A') (A') (A") (A') (A')
                 (A") (A') (A') (A') (A") (A") (A") (A") (A') (A')
                 (A') (A') (A') (A') (A') (A') (A') (A") (A') (A')
                 (A') (A") (A') (A") (A") (A") (A') (A") (A') (A')
                 (A') (A') (A') (A') (A') (A') (A') (A') (A') (A')
                 (A') (A') (A') (A') (A') (A') (A') (A') (A') (A")
                 (A") (A") (A') (A') (A') (A') (A') (A') (A') (A')
                 (A')
 Beta  Orbitals:
       Occupied  (A') (A') (A') (A') (A') (A') (A') (A') (A') (A')
                 (A') (A') (A') (A') (A') (A") (A") (A') (A') (A")
                 (A') (A') (A') (A') (A') (A') (A') (A') (A') (A')
                 (A') (A') (A') (A") (A') (A') (A") (A") (A') (A')
                 (A") (A') (A") (A")
       Virtual   (A') (A") (A") (A') (A') (A') (A') (A') (A") (A')
                 (A') (A') (A") (A") (A') (A') (A') (A") (A') (A")
                 (A') (A') (A') (A") (A') (A") (A') (A') (A") (A')
                 (A') (A") (A') (A') (A") (A') (A') (A') (A') (A')
                 (A') (A') (A') (A') (A') (A') (A') (A') (A') (A')
                 (A') (A') (A') (A") (A') (A") (A') (A') (A") (A')
                 (A') (A') (A") (A') (A') (A") (A") (A') (A") (A")
                 (A') (A') (A") (A') (A') (A') (A') (A') (A") (A')
                 (A') (A') (A") (A') (A') (A') (A") (A") (A") (A')
                 (A") (A') (A') (A') (A') (A') (A') (A") (A') (A')
                 (A") (A') (A') (A") (A') (A') (A') (A") (A') (A')
                 (A") (A") (A') (A') (A') (A") (A') (A') (A") (A')
                 (A') (A') (A") (A') (A") (A") (A') (A') (A") (A')
                 (A') (A") (A') (A') (A') (A") (A") (A") (A") (A')
                 (A') (A') (A') (A') (A') (A') (A') (A') (A") (A')
                 (A') (A') (A") (A') (A") (A") (A") (A') (A") (A')
                 (A') (A') (A') (A') (A') (A') (A') (A') (A') (A')
                 (A') (A') (A') (A') (A') (A') (A') (A') (A') (A')
                 (A") (A") (A") (A') (A') (A') (A') (A') (A') (A')
                 (A') (A')
 Initial guess <Sx>= 0.0000 <Sy>= 0.0000 <Sz>= 0.5000 <S**2>= 0.7629 S= 0.5064
 ExpMin= 3.60D-02 ExpMax= 1.06D+05 ExpMxC= 3.62D+03 IAcc=3 IRadAn=         5 AccDes= 0.00D+00
 Harris functional with IExCor= 1009 and IRadAn=       5 diagonalized for initial guess.
 HarFok:  IExCor= 1009 AccDes= 0.00D+00 IRadAn=         5 IDoV= 1 UseB2=F ITyADJ=14
 ICtDFT=  3500011 ScaDFX=  1.000000  1.000000  1.000000  1.000000
 FoFCou: FMM=F IPFlag=           0 FMFlag=      100000 FMFlg1=           0
         NFxFlg=           0 DoJE=T BraDBF=F KetDBF=T FulRan=T
         wScrn=  0.000000 ICntrl=       500 IOpCl=  0 I1Cent=   200000004 NGrid=           0
         NMat0=    1 NMatS0=      1 NMatT0=    0 NMatD0=    1 NMtDS0=    0 NMtDT0=    0
 Petite list used in FoFCou.
 Keep R1 and R2 ints in memory in symmetry-blocked form, NReq=617299900.
 Requested convergence on RMS density matrix=1.00D-08 within 128 cycles.
 Requested convergence on MAX density matrix=1.00D-06.
 Requested convergence on             energy=1.00D-06.
 No special actions if energy rises.
 SCF Done:  E(UM062X) =  -1610.30534438     A.U. after   18 cycles
            NFock= 18  Conv=0.82D-08     -V/T= 2.0023
 <Sx>= 0.0000 <Sy>= 0.0000 <Sz>= 0.5000 <S**2>= 0.7630 S= 0.5065
 <L.S>=  0.00000000000    
 Annihilation of the first spin contaminant:
 S**2 before annihilation     0.7630,   after     0.7501
 Calling FoFJK, ICntrl=      2127 FMM=F ISym2X=1 I1Cent= 0 IOpClX= 1 NMat=1 NMatS=1 NMatT=0.
 ***** Axes restored to original set *****
 -------------------------------------------------------------------
 Center     Atomic                   Forces (Hartrees/Bohr)
 Number     Number              X              Y              Z
 -------------------------------------------------------------------
      1        6           0.000454214   -0.001114204   -0.000000000
      2        6          -0.000437383    0.000927438    0.000000000
      3        6           0.001346089   -0.000686956   -0.000000000
      4        6          -0.002529790    0.001664057    0.000000000
      5        6           0.000680369   -0.001658718   -0.000000000
      6        6          -0.000892883    0.001024485    0.000000000
      7       17           0.000130429    0.000227551    0.000000000
      8       17          -0.000361508    0.000150349    0.000000000
      9        1          -0.000005487    0.000242314    0.000000000
     10       17           0.001469742   -0.000630705   -0.000000000
     11        1           0.000146208   -0.000145614   -0.000000000
 -------------------------------------------------------------------
 Cartesian Forces:  Max     0.002529790 RMS     0.000814534

 GradGradGradGradGradGradGradGradGradGradGradGradGradGradGradGradGradGrad
 Berny optimization.
 Using GEDIIS/GDIIS optimizer.
 FormGI is forming the generalized inverse of G from B-inverse, IUseBI=4.
 Internal  Forces:  Max     0.001593608 RMS     0.000416986
 Search for a local minimum.
 Step number   3 out of a maximum of   57
 All quantities printed in internal units (Hartrees-Bohrs-Radians)
 Mixed Optimization -- En-DIIS/RFO-DIIS
 Update second derivatives using D2CorX and points    1    2    3
 DE= -3.84D-04 DEPred=-3.37D-04 R= 1.14D+00
 TightC=F SS=  1.41D+00  RLast= 5.41D-02 DXNew= 7.4962D-01 1.6234D-01
 Trust test= 1.14D+00 RLast= 5.41D-02 DXMaxT set to 4.46D-01
 ITU=  1  1  0
 Use linear search instead of GDIIS.
     Eigenvalues ---    0.01892   0.01922   0.01936   0.01966   0.01994
     Eigenvalues ---    0.02080   0.02127   0.02364   0.15800   0.16028
     Eigenvalues ---    0.18217   0.23849   0.24407   0.25000   0.25013
     Eigenvalues ---    0.25240   0.32243   0.33749   0.35092   0.37048
     Eigenvalues ---    0.38001   0.40395   0.41818   0.43614   0.44685
     Eigenvalues ---    0.49355   0.51394
 RFO step:  Lambda=-2.07877960D-05 EMin= 1.89185663D-02
 Quartic linear search produced a step of  0.15144.
 Iteration  1 RMS(Cart)=  0.00188758 RMS(Int)=  0.00000337
 Iteration  2 RMS(Cart)=  0.00000320 RMS(Int)=  0.00000232
 Iteration  3 RMS(Cart)=  0.00000000 RMS(Int)=  0.00000232
 ClnCor:  largest displacement from symmetrization is 8.34D-10 for atom     7.
 Variable       Old X    -DE/DX   Delta X   Delta X   Delta X     New X
                                 (Linear)    (Quad)   (Total)
    R1        2.63988   0.00045  -0.00115   0.00169   0.00053   2.64042
    R2        2.64117  -0.00032  -0.00071  -0.00067  -0.00138   2.63979
    R3        3.26536   0.00039   0.00289  -0.00023   0.00265   3.26801
    R4        2.58304   0.00075   0.00086   0.00093   0.00179   2.58483
    R5        2.04600   0.00024   0.00028   0.00021   0.00049   2.04648
    R6        2.59056  -0.00023   0.00031  -0.00092  -0.00061   2.58995
    R7        2.62794   0.00021  -0.00122   0.00108  -0.00015   2.62780
    R8        3.26956   0.00159   0.00406   0.00255   0.00661   3.27618
    R9        2.62850   0.00093  -0.00038   0.00233   0.00194   2.63045
   R10        2.04579   0.00015   0.00000   0.00007   0.00007   2.04585
   R11        3.27231  -0.00023   0.00256  -0.00192   0.00064   3.27295
    A1        2.08673   0.00051   0.00083   0.00180   0.00262   2.08935
    A2        2.07749  -0.00017  -0.00098  -0.00002  -0.00100   2.07649
    A3        2.11896  -0.00035   0.00015  -0.00177  -0.00162   2.11735
    A4        2.04996  -0.00044   0.00089  -0.00240  -0.00151   2.04845
    A5        2.09488   0.00021  -0.00122   0.00157   0.00034   2.09523
    A6        2.13834   0.00023   0.00034   0.00083   0.00117   2.13951
    A7        2.17937  -0.00030  -0.00328   0.00053  -0.00274   2.17663
    A8        2.05163   0.00096   0.00302   0.00252   0.00554   2.05717
    A9        2.12318  -0.00070  -0.00147  -0.00233  -0.00380   2.11938
   A10        2.10838  -0.00026  -0.00155  -0.00019  -0.00174   2.10664
   A11        2.09149  -0.00086  -0.00124  -0.00314  -0.00438   2.08711
   A12        2.10218   0.00027   0.00068   0.00052   0.00120   2.10338
   A13        2.08952   0.00058   0.00056   0.00262   0.00318   2.09270
   A14        2.10719   0.00012  -0.00021   0.00069   0.00048   2.10767
   A15        2.11068  -0.00024   0.00058  -0.00152  -0.00094   2.10974
   A16        2.06532   0.00012  -0.00037   0.00083   0.00046   2.06578
    D1        0.00000   0.00000   0.00000  -0.00000   0.00000   0.00000
    D2        3.14159  -0.00000   0.00000  -0.00000   0.00000   3.14159
    D3        3.14159  -0.00000   0.00000  -0.00000   0.00000   3.14159
    D4        0.00000   0.00000   0.00000  -0.00000  -0.00000   0.00000
    D5        0.00000  -0.00000   0.00000   0.00000  -0.00000   0.00000
    D6        3.14159  -0.00000   0.00000   0.00000   0.00000   3.14159
    D7        3.14159  -0.00000   0.00000   0.00000   0.00000   3.14159
[...]
     Eigenvalues ---    0.15260   0.15874   0.17120   0.18067   0.19230
     Eigenvalues ---    0.22255   0.25150   0.27428   0.29569   0.31909
     Eigenvalues ---    0.36640   0.36881   0.43090   0.45424   0.47819
     Eigenvalues ---    0.49949   0.52740
 Angle between quadratic step and forces=  21.64 degrees.
 Linear search not attempted -- first point.
 Iteration  1 RMS(Cart)=  0.00016906 RMS(Int)=  0.00000002
 Iteration  2 RMS(Cart)=  0.00000002 RMS(Int)=  0.00000000
 ClnCor:  largest displacement from symmetrization is 8.77D-12 for atom     7.
 Variable       Old X    -DE/DX   Delta X   Delta X   Delta X     New X
                                 (Linear)    (Quad)   (Total)
    R1        2.64075   0.00004   0.00000   0.00015   0.00015   2.64091
    R2        2.64020  -0.00007   0.00000  -0.00009  -0.00009   2.64011
    R3        3.26801  -0.00006   0.00000  -0.00019  -0.00019   3.26782
    R4        2.58493  -0.00003   0.00000  -0.00010  -0.00010   2.58482
    R5        2.04650  -0.00002   0.00000  -0.00006  -0.00006   2.04644
    R6        2.58946  -0.00005   0.00000  -0.00009  -0.00009   2.58937
    R7        2.62754   0.00001   0.00000  -0.00005  -0.00005   2.62749
    R8        3.27769   0.00002   0.00000   0.00008   0.00008   3.27777
    R9        2.63097   0.00004   0.00000   0.00015   0.00015   2.63112
   R10        2.04586  -0.00000   0.00000  -0.00000  -0.00000   2.04586
   R11        3.27192  -0.00014   0.00000  -0.00058  -0.00058   3.27134
    A1        2.09015   0.00002   0.00000   0.00015   0.00015   2.09031
    A2        2.07553   0.00003   0.00000   0.00005   0.00005   2.07559
    A3        2.11750  -0.00006   0.00000  -0.00021  -0.00021   2.11729
    A4        2.04723  -0.00003   0.00000  -0.00021  -0.00021   2.04703
    A5        2.09582   0.00001   0.00000  -0.00000  -0.00000   2.09582
    A6        2.14013   0.00002   0.00000   0.00021   0.00021   2.14034
    A7        2.17698   0.00004   0.00000   0.00021   0.00021   2.17718
    A8        2.05839  -0.00002   0.00000  -0.00008  -0.00008   2.05830
    A9        2.11822  -0.00003   0.00000  -0.00017  -0.00017   2.11806
   A10        2.10657   0.00004   0.00000   0.00025   0.00025   2.10682
   A11        2.08583   0.00001   0.00000   0.00007   0.00007   2.08590
   A12        2.10368   0.00000   0.00000   0.00007   0.00007   2.10375
   A13        2.09367  -0.00001   0.00000  -0.00013  -0.00013   2.09354
   A14        2.10779  -0.00002   0.00000  -0.00014  -0.00014   2.10765
   A15        2.11023  -0.00003   0.00000  -0.00005  -0.00005   2.11018
   A16        2.06517   0.00005   0.00000   0.00019   0.00019   2.06536
    D1       -0.00000  -0.00000   0.00000   0.00000   0.00000   0.00000
    D2        3.14159  -0.00000   0.00000   0.00000   0.00000   3.14159
    D3        3.14159  -0.00000   0.00000   0.00000   0.00000   3.14159
    D4       -0.00000  -0.00000   0.00000   0.00000   0.00000   0.00000
    D5       -0.00000   0.00000   0.00000  -0.00000   0.00000   0.00000
    D6        3.14159   0.00000   0.00000  -0.00000   0.00000   3.14159
    D7        3.14159   0.00000   0.00000  -0.00000   0.00000   3.14159
    D8       -0.00000   0.00000   0.00000  -0.00000   0.00000   0.00000
    D9       -0.00000   0.00000   0.00000   0.00000   0.00000   0.00000
   D10        3.14159  -0.00000   0.00000   0.00000   0.00000   3.14159
   D11        0.00000   0.00000   0.00000  -0.00000   0.00000   0.00000
   D12        3.14159   0.00000   0.00000  -0.00000   0.00000   3.14159
   D13       -0.00000  -0.00000   0.00000   0.00000   0.00000   0.00000
   D14        3.14159  -0.00000   0.00000   0.00000   0.00000   3.14159
   D15        3.14159  -0.00000   0.00000   0.00000   0.00000   3.14159
   D16        0.00000   0.00000   0.00000  -0.00000   0.00000   0.00000
   D17        0.00000  -0.00000   0.00000   0.00000   0.00000   0.00000
   D18        3.14159  -0.00000   0.00000   0.00000   0.00000   3.14159
   D19        3.14159  -0.00000   0.00000   0.00000   0.00000   3.14159
   D20        0.00000  -0.00000   0.00000   0.00000   0.00000   0.00000
         Item               Value     Threshold  Converged?
 Maximum Force            0.000138     0.000450     YES
 RMS     Force            0.000033     0.000300     YES
 Maximum Displacement     0.000684     0.001800     YES
 RMS     Displacement     0.000169     0.001200     YES
 Predicted change in Energy=-9.519502D-08
 Optimization completed.
    -- Stationary point found.
                           ----------------------------
                           !   Optimized Parameters   !
                           ! (Angstroms and Degrees)  !
 --------------------------                            --------------------------
 ! Name  Definition              Value          Derivative Info.                !
 --------------------------------------------------------------------------------
 ! R1    R(1,2)                  1.3974         -DE/DX =    0.0                 !
 ! R2    R(1,6)                  1.3971         -DE/DX =   -0.0001              !
 ! R3    R(1,8)                  1.7294         -DE/DX =   -0.0001              !
 ! R4    R(2,3)                  1.3679         -DE/DX =    0.0                 !
 ! R5    R(2,9)                  1.083          -DE/DX =    0.0                 !
 ! R6    R(3,4)                  1.3703         -DE/DX =    0.0                 !
 ! R7    R(4,5)                  1.3904         -DE/DX =    0.0                 !
 ! R8    R(4,10)                 1.7345         -DE/DX =    0.0                 !
 ! R9    R(5,6)                  1.3922         -DE/DX =    0.0                 !
 ! R10   R(5,11)                 1.0826         -DE/DX =    0.0                 !
 ! R11   R(6,7)                  1.7314         -DE/DX =   -0.0001              !
 ! A1    A(2,1,6)              119.7569         -DE/DX =    0.0                 !
 ! A2    A(2,1,8)              118.9193         -DE/DX =    0.0                 !
 ! A3    A(6,1,8)              121.3238         -DE/DX =   -0.0001              !
 ! A4    A(1,2,3)              117.2978         -DE/DX =    0.0                 !
 ! A5    A(1,2,9)              120.0819         -DE/DX =    0.0                 !
 ! A6    A(3,2,9)              122.6204         -DE/DX =    0.0                 !
 ! A7    A(2,3,4)              124.7316         -DE/DX =    0.0                 !
 ! A8    A(3,4,5)              117.9369         -DE/DX =    0.0                 !
 ! A9    A(3,4,10)             121.3653         -DE/DX =    0.0                 !
 ! A10   A(5,4,10)             120.6978         -DE/DX =    0.0                 !
 ! A11   A(4,5,6)              119.5095         -DE/DX =    0.0                 !
 ! A12   A(4,5,11)             120.532          -DE/DX =    0.0                 !
 ! A13   A(6,5,11)             119.9586         -DE/DX =    0.0                 !
 ! A14   A(1,6,5)              120.7674         -DE/DX =    0.0                 !
 ! A15   A(1,6,7)              120.907          -DE/DX =    0.0                 !
 ! A16   A(5,6,7)              118.3255         -DE/DX =    0.0001              !
 ! D1    D(6,1,2,3)              0.0            -DE/DX =    0.0                 !
 ! D2    D(6,1,2,9)            180.0            -DE/DX =    0.0                 !
 ! D3    D(8,1,2,3)            180.0            -DE/DX =    0.0                 !
 ! D4    D(8,1,2,9)              0.0            -DE/DX =    0.0                 !
 ! D5    D(2,1,6,5)              0.0            -DE/DX =    0.0                 !
 ! D6    D(2,1,6,7)            180.0            -DE/DX =    0.0                 !
 ! D7    D(8,1,6,5)            180.0            -DE/DX =    0.0                 !
 ! D8    D(8,1,6,7)              0.0            -DE/DX =    0.0                 !
 ! D9    D(1,2,3,4)              0.0            -DE/DX =    0.0                 !
 ! D10   D(9,2,3,4)            180.0            -DE/DX =    0.0                 !
 ! D11   D(2,3,4,5)              0.0            -DE/DX =    0.0                 !
 ! D12   D(2,3,4,10)           180.0            -DE/DX =    0.0                 !
 ! D13   D(3,4,5,6)              0.0            -DE/DX =    0.0                 !
 ! D14   D(3,4,5,11)           180.0            -DE/DX =    0.0                 !
 ! D15   D(10,4,5,6)           180.0            -DE/DX =    0.0                 !
 ! D16   D(10,4,5,11)            0.0            -DE/DX =    0.0                 !
 ! D17   D(4,5,6,1)              0.0            -DE/DX =    0.0                 !
 ! D18   D(4,5,6,7)            180.0            -DE/DX =    0.0                 !
 ! D19   D(11,5,6,1)           180.0            -DE/DX =    0.0                 !
 ! D20   D(11,5,6,7)             0.0            -DE/DX =    0.0                 !
 --------------------------------------------------------------------------------
 GradGradGradGradGradGradGradGradGradGradGradGradGradGradGradGradGradGrad


 ----------------------------------------------------------------------

 Electric dipole moment (input orientation):
 (Debye = 10**-18 statcoulomb cm , SI units = C m)
                  (au)            (Debye)         (10**-30 SI)
   Tot        0.209075D+00      0.531416D+00      0.177261D+01
   x          0.139707D+00      0.355099D+00      0.118448D+01
   y          0.155546D+00      0.395358D+00      0.131877D+01
   z          0.000000D+00      0.000000D+00      0.000000D+00

 Dipole polarizability, Alpha (input orientation).
 (esu units = cm**3 , SI units = C**2 m**2 J**-1)
 Alpha(0;0):
               (au)            (10**-24 esu)      (10**-40 SI)
   iso        0.101500D+03      0.150408D+02      0.167351D+02
   aniso      0.769891D+02      0.114086D+02      0.126938D+02
   xx         0.140262D+03      0.207847D+02      0.231261D+02
   yx        -0.125896D+02     -0.186559D+01     -0.207575D+01
   yy         0.108395D+03      0.160625D+02      0.178719D+02
   zx         0.000000D+00      0.000000D+00      0.000000D+00
   zy         0.000000D+00      0.000000D+00      0.000000D+00
   zz         0.558436D+02      0.827516D+01      0.920736D+01

 ----------------------------------------------------------------------

 Dipole orientation:
     6         -3.53623211          3.17614322         -3.76640390
     6         -2.98145374          2.67785705         -1.23312331
     6         -1.09300994          0.98171047         -0.74452985
     6          0.28404211         -0.25511855         -2.55540975
     6         -0.26906530          0.24166681         -5.07557767
     6         -2.17569557          1.95414795         -5.67069646
    17         -2.81606085          2.52930585         -8.82737053
    17         -5.90974846          5.30796817         -4.47467225
     1         -4.02979898          3.61945096          0.25096571
    17          2.64739190         -2.37781219         -1.74794973
     1          0.76959541         -0.69122874         -6.57104928

 Electric dipole moment (dipole orientation):
 (Debye = 10**-18 statcoulomb cm , SI units = C m)
                  (au)            (Debye)         (10**-30 SI)
   Tot        0.209075D+00      0.531416D+00      0.177261D+01
   x          0.000000D+00      0.000000D+00      0.000000D+00
   y          0.000000D+00      0.000000D+00      0.000000D+00
   z          0.209075D+00      0.531416D+00      0.177261D+01

 Dipole polarizability, Alpha (dipole orientation).
 (esu units = cm**3 , SI units = C**2 m**2 J**-1)
 Alpha(0;0):
               (au)            (10**-24 esu)      (10**-40 SI)
   iso        0.101500D+03      0.150408D+02      0.167351D+02
   aniso      0.769891D+02      0.114086D+02      0.126938D+02
   xx         0.101621D+03      0.150587D+02      0.167551D+02
   yx        -0.411161D+02     -0.609278D+01     -0.677914D+01
   yy         0.927729D+02      0.137475D+02      0.152962D+02
   zx         0.107841D+02      0.159804D+01      0.177805D+01
   zy        -0.968595D+01     -0.143531D+01     -0.159700D+01
   zz         0.110107D+03      0.163161D+02      0.181541D+02

 ----------------------------------------------------------------------
 1\1\GINC-SH02-01N03\Freq\UM062X\6-311++G(d,p)\C6H2Cl3(2)\JLAPIER\09-De
 c-2025\0\\#N Geom=AllCheck Guess=TCheck SCRF=Check GenChk UM062X/6-311
 ++G(d,p) Freq\\Neutral Radical (removed 4) 12_5\\0,2\C,-3.2031052149,0
 .1979393412,0.\C,-2.0137534932,0.9315900824,0.\C,-0.8416639479,0.22638
 33296,0.\C,-0.7532919781,-1.1410474242,0.\C,-1.9371227885,-1.870330004
 4,0.\C,-3.1565038707,-1.1984175438,0.\Cl,-4.611580048,-2.1368145768,0.
 \Cl,-4.7095618002,1.0472129087,0.\H,-2.0437355537,2.0141341694,0.\Cl,0
 .7828591679,-1.9464379336,0.\H,-1.9162904727,-2.9527523485,0.\\Version
 =ES64L-G16RevB.01\State=2-A'\HF=-1610.3053658\S2=0.763032\S2-1=0.\S2A=
 0.750075\RMSD=9.506e-09\RMSF=5.089e-05\ZeroPoint=0.0594903\Thermal=0.0
 672926\Dipole=0.1397068,0.1555457,0.\DipoleDeriv=0.7108713,-0.598838,0
 .,-0.5379307,0.2751919,0.,0.,0.,-0.0405357,-0.1537306,0.0882509,0.,0.0
 068448,-0.0484354,0.,0.,0.,-0.0399161,-0.2189583,0.0236025,0.,0.099007
 ,-0.0901205,0.,0.,0.,-0.068916,0.9503779,-0.4460125,0.,-0.529132,0.321
 7364,0.,0.,0.,0.0500042,-0.2952024,-0.0420531,0.,0.0114889,-0.0940418,
 0.,0.,0.,-0.1254078,0.610318,0.6283237,0.,0.5729745,0.2343152,0.,0.,0.
 ,0.0262627,-0.4990942,-0.2945771,0.,-0.3271058,-0.2414518,0.,0.,0.,-0.
 0326581,-0.5831211,0.3418105,0.,0.3399452,-0.2416621,0.,0.,0.,-0.03061
 08,0.0848566,0.0188474,0.,0.0141745,0.055397,0.,0.,0.,0.1572122,-0.683
 5528,0.2803938,0.,0.3426702,-0.2273319,0.,0.,0.,-0.0363445,0.0772358,0
 .000252,0.,0.0070634,0.056403,0.,0.,0.,0.1409097\Polar=140.2621874,-12
 .5896134,108.3949265,0.,0.,55.8435795\Quadrupole=-2.8123448,4.0317018,
 -1.2193571,0.5973318,0.,0.\PG=CS [SG(C6H2Cl3)]\NImag=0\\0.55944525,0.0
 3341171,0.60412612,0.,0.,0.11717819,-0.24097320,-0.05329392,0.,0.62812
 160,-0.14054773,-0.17712592,0.,-0.04650099,0.74879487,0.,0.,-0.0620273
 0,0.,0.,0.12221763,-0.06845986,-0.03496433,0.,-0.29320690,0.14421849,0
 .,0.45057018,0.04056193,0.07534685,0.,0.10386823,-0.17709826,0.,-0.154
 11981,0.58786906,0.,0.,0.01494378,0.,0.,-0.05157749,0.,0.,0.07403114,-
 0.01592168,-0.03744244,0.,0.03597919,0.03525363,0.,-0.08933786,0.02537
 271,0.,0.53836859,-0.03740157,-0.07249479,0.,0.08271956,-0.02357161,0.
 ,-0.00242997,-0.35029369,0.,0.02119746,0.62589919,0.,0.,-0.00531515,0.
 ,0.,0.00781098,0.,0.,-0.05798765,0.,0.,0.11932397,0.03461410,0.0910767
 1,0.,-0.07751417,-0.00269618,0.,0.04274637,-0.08761611,0.,-0.25748291,
 -0.05778138,0.,0.65914245,0.02554923,-0.02122729,0.,0.00003696,0.00053
 188,0.,-0.02174497,-0.03764528,0.,-0.14567785,-0.18264333,0.,0.0029470
 9,0.75776658,0.,0.,0.00786566,0.,0.,-0.00167343,0.,0.,0.01519132,0.,0.
 ,-0.06331539,0.,0.,0.12503203,-0.10067565,-0.03142838,0.,0.03919141,-0
 .02141659,0.,-0.02414078,0.03835363,0.,-0.06134816,-0.04196585,0.,-0.2
 6726445,0.13635406,0.,0.57777734,0.04622808,-0.30498320,0.,-0.08809813
 ,-0.02456733,0.,0.03778576,-0.06861323,0.,0.02993404,0.07730795,0.,0.0
 5722406,-0.17512386,0.,-0.04211228,0.60672019,0.,0.,-0.06521816,0.,0.,
 0.00921435,0.,0.,-0.00525335,0.,0.,0.00765731,0.,0.,-0.06145077,0.,0.,
 0.12193177,-0.01537826,-0.00807227,0.,0.00131223,-0.00056240,0.,-0.000
 88760,-0.00213863,0.,0.00108673,0.00467113,0.,-0.04124293,-0.02454506,
 0.,-0.14595083,-0.06998514,0.,0.19999527,-0.03350626,-0.02047468,0.,0.
 00398461,-0.00416855,0.,-0.00111121,0.00041411,0.,0.00206721,-0.000593
 91,0.,0.00003787,0.00463731,0.,-0.06582504,-0.08214096,0.,0.09790139,0
 .10887320,0.,0.,0.00354816,0.,0.,0.00348493,0.,0.,-0.00074884,0.,0.,0.
 00464003,0.,0.,0.00440063,0.,0.,-0.02273628,0.,0.,0.01143309,-0.151646
 26,0.06612583,0.,-0.04168481,0.02152100,0.,-0.00269615,-0.00468048,0.,
 0.00180117,0.00102432,0.,0.00122070,0.00067240,0.,-0.01765677,0.008025
 82,0.,0.00328345,-0.00284718,0.,0.20885707,0.06072272,-0.07382736,0.,-
 0.00279050,0.00507482,0.,-0.00100247,-0.00017259,0.,0.00020835,0.00087
 563,0.,-0.00396728,-0.00378353,0.,0.03342799,-0.01747503,0.,0.00365938
 ,-0.00738348,0.,-0.09200705,0.09638901,0.,0.,-0.02197084,0.,0.,0.00477
 787,0.,0.,0.00429593,0.,0.,-0.00033137,0.,0.,0.00357899,0.,0.,0.003301
 48,0.,0.,-0.00114833,0.,0.,0.01031779,0.00272152,-0.02697217,0.,-0.051
 31793,0.01089869,0.,0.00253912,0.02482009,0.,-0.00346123,0.00346332,0.
 ,-0.00143410,-0.00027345,0.,-0.00328921,-0.00178733,0.,-0.00055711,-0.
 00141395,0.,0.00076858,-0.00072228,0.,0.05436381,0.00255211,-0.0119776
 8,0.,0.00286566,-0.34524895,0.,0.00402752,-0.01030151,0.,0.00075467,0.
 00024205,0.,0.00002273,0.00062325,0.,-0.00226197,0.00036646,0.,-0.0001
 0571,-0.00029990,0.,0.00117165,0.00084643,0.,-0.00893120,0.36586951,0.
 ,0.,0.00516507,0.,0.,-0.03401880,0.,0.,-0.00059243,0.,0.,0.00574976,0.
 ,0.,-0.00074404,0.,0.,0.00523919,0.,0.,-0.00001805,0.,0.,-0.00261847,0
 .,0.,0.02205665,-0.00016616,0.00036887,0.,0.00093271,-0.00093107,0.,-0
 .01349495,0.01947307,0.,-0.15215043,0.05271289,0.,-0.03930139,0.021720
 49,0.,0.00125672,-0.00398633,0.,-0.00195141,-0.00025423,0.,-0.00173629
 ,0.00102490,0.,-0.00037406,-0.00006742,0.,0.20588978,0.00055854,0.0021
 0099,0.,-0.00277705,-0.00369693,0.,0.03203986,-0.01841799,0.,0.0655759
 7,-0.06445874,0.,-0.00575666,0.00674443,0.,-0.00088348,-0.00204366,0.,
 0.00010618,0.00030057,0.,0.00098792,-0.00042435,0.,0.00091637,-0.00002
 652,0.,-0.09066717,0.07904741,0.,0.,0.00036574,0.,0.,0.00322280,0.,0.,
 0.00216641,0.,0.,-0.02214493,0.,0.,0.00571276,0.,0.,0.00436069,0.,0.,-
 0.00006605,0.,0.,-0.00036806,0.,0.,-0.00032762,0.,0.,0.00984529,-0.003
 55980,0.00119040,0.,-0.00084013,0.00076318,0.,-0.00363157,-0.00389463,
 0.,0.00246658,-0.02620990,0.,-0.05348368,0.00496111,0.,0.00210037,0.02
 677144,0.,0.00029047,0.00096679,0.,-0.00051070,0.00144625,0.,0.0000406
 2,-0.00002803,0.,0.00109548,-0.00010048,0.,0.05603236,0.00187124,0.000
 53695,0.,-0.00001443,0.00107598,0.,-0.00269885,-0.00108747,0.,0.002756
 25,-0.01026875,0.,0.00650917,-0.34988015,0.,-0.00224208,-0.00944732,0.
 ,-0.00092887,0.00083630,0.,0.00000576,-0.00011954,0.,0.00000192,-0.000
 09313,0.,0.00060600,0.00087479,0.,-0.00586612,0.36757234,0.,0.,0.00546
 485,0.,0.,-0.00143153,0.,0.,0.00553117,0.,0.,0.00391245,0.,0.,-0.03459
 775,0.,0.,0.00295377,0.,0.,-0.00278928,0.,0.,0.00016502,0.,0.,0.000108
 75,0.,0.,-0.00276703,0.,0.,0.02344959\\0.00004295,0.00004395,0.,-0.000
 08530,-0.00007151,0.,0.00004994,0.00007353,0.,0.00000319,-0.00001955,0
 .,-0.00003404,-0.00002518,0.,0.00017815,0.00004034,0.,-0.00009762,-0.0
 0010365,0.,-0.00004652,0.00004637,0.,-0.00000082,0.00001915,0.,-0.0000
 2519,0.00000026,0.,0.00001527,-0.00000371,0.\\\@


 A ROPE OVER THE TOP OF A FENCE HAS THE SAME LENGTH ON EACH SIDE.
 WEIGHS 1/3 POUND PER FOOT.  ON ONE END HANGS A MONKEY HOLDING A
 BANANA, AND ON THE OTHER END A WEIGHT EQUAL TO THE WEIGHT
 OF THE MONKEY.  THE BANANA WEIGHS TWO OUNCES PER INCH.
 THE ROPE IS AS LONG AS THE AGE OF THE MONKEY, 
 AND THE WEIGHT OF THE MONKEY (IN OUNCES) IS AS MUCH
 AS THE AGE OF THE MONKEY'S MOTHER.  THE COMBINED AGES OF MONKEY
 AND MOTHER ARE THIRTY YEARS.  HALF THE WEIGHT OF THE MONKEY,
  PLUS THE WEIGHT OF THE BANANA, IS ONE FOURTH AS MUCH AS THE WEIGHT
 OF THE WEIGHT AND THE ROPE.
 THE MONKEY'S MOTHER IS HALF AS OLD AS THE MONKEY WILL BE
 WHEN IT IS 3 TIMES AS OLD AS ITS MOTHER WAS WHEN
 SHE WAS HALF AS OLD AS THE MONKEY WILL BE WHEN IT IS
 AS OLD AS ITS MOTHER WILL BE WHEN SHE IS 4 TIMES AS
 OLD AS THE MONKEY WAS WHEN IT WAS TWICE AS OLD AS 
 ITS MOTHER WAS WHEN SHE WAS ONE THIRD AS OLD AS THE
 MONKEY WAS WHEN IT WAS AS OLD AS ITS MOTHER WAS WHEN 
 SHE WAS 3 TIMES AS OLD AS THE MONKEY WAS WHEN IT WAS AS OLD AS ITS
 MOTHER WAS WHEN SHE WAS 3 TIMES AS OLD AS THE MONKEY 
 WAS WHEN IT WAS ONE FOURTH WAS OLD AS IT IS NOW.

 HOW LONG IS THE BANANA?
 Job cpu time:       0 days  0 hours 38 minutes 38.2 seconds.
 Elapsed time:       0 days  0 hours  9 minutes 42.4 seconds.
 File lengths (MBytes):  RWF=    172 Int=      0 D2E=      0 Chk=     34 Scr=      1
 Normal termination of Gaussian 16 at Tue Dec  9 13:46:47 2025.
