 Entering Gaussian System, Link 0=g16
 Initial command:
 /share/software/user/restricted/gaussian/g16.B01/l1.exe "/home/users/jlapier/Chloroaromatics/Gau-14147.inp" -scrdir="/home/users/jlapier/Chloroaromatics/"
 Entering Link 1 = /share/software/user/restricted/gaussian/g16.B01/l1.exe PID=     14148.
  
 Copyright (c) 1988-2017, Gaussian, Inc.  All Rights Reserved.
  
 This is part of the Gaussian(R) 16 program.  It is based on
 the Gaussian(R) 09 system (copyright 2009, Gaussian, Inc.),
 the Gaussian(R) 03 system (copyright 2003, Gaussian, Inc.),
 the Gaussian(R) 98 system (copyright 1998, Gaussian, Inc.),
 the Gaussian(R) 94 system (copyright 1995, Gaussian, Inc.),
 the Gaussian 92(TM) system (copyright 1992, Gaussian, Inc.),
 the Gaussian 90(TM) system (copyright 1990, Gaussian, Inc.),
 the Gaussian 88(TM) system (copyright 1988, Gaussian, Inc.),
 the Gaussian 86(TM) system (copyright 1986, Carnegie Mellon
 University), and the Gaussian 82(TM) system (copyright 1983,
 Carnegie Mellon University). Gaussian is a federally registered
 trademark of Gaussian, Inc.
  
 This software contains proprietary and confidential information,
 including trade secrets, belonging to Gaussian, Inc.
  
 This software is provided under written license and may be
 used, copied, transmitted, or stored only in accord with that
 written license.
  
 The following legend is applicable only to US Government
 contracts under FAR:
  
                    RESTRICTED RIGHTS LEGEND
  
 Use, reproduction and disclosure by the US Government is
 subject to restrictions as set forth in subparagraphs (a)
 and (c) of the Commercial Computer Software - Restricted
 Rights clause in FAR 52.227-19.
  
 Gaussian, Inc.
 340 Quinnipiac St., Bldg. 40, Wallingford CT 06492
  
  
 ---------------------------------------------------------------
 Warning -- This program may not be used in any manner that
 competes with the business of Gaussian, Inc. or will provide
 assistance to any competitor of Gaussian, Inc.  The licensee
 of this program is prohibited from giving any competitor of
 Gaussian, Inc. access to this program.  By using this program,
 the user acknowledges that Gaussian, Inc. is engaged in the
 business of creating and licensing software in the field of
 computational chemistry and represents and warrants to the
 licensee that it is not a competitor of Gaussian, Inc. and that
 it will not use this program in any manner prohibited above.
 ---------------------------------------------------------------
  

 Cite this work as:
 Gaussian 16, Revision B.01,
 M. J. Frisch, G. W. Trucks, H. B. Schlegel, G. E. Scuseria, 
 M. A. Robb, J. R. Cheeseman, G. Scalmani, V. Barone, 
 G. A. Petersson, H. Nakatsuji, X. Li, M. Caricato, A. V. Marenich, 
 J. Bloino, B. G. Janesko, R. Gomperts, B. Mennucci, H. P. Hratchian, 
 J. V. Ortiz, A. F. Izmaylov, J. L. Sonnenberg, D. Williams-Young, 
 F. Ding, F. Lipparini, F. Egidi, J. Goings, B. Peng, A. Petrone, 
 T. Henderson, D. Ranasinghe, V. G. Zakrzewski, J. Gao, N. Rega, 
 G. Zheng, W. Liang, M. Hada, M. Ehara, K. Toyota, R. Fukuda, 
 J. Hasegawa, M. Ishida, T. Nakajima, Y. Honda, O. Kitao, H. Nakai, 
 T. Vreven, K. Throssell, J. A. Montgomery, Jr., J. E. Peralta, 
 F. Ogliaro, M. J. Bearpark, J. J. Heyd, E. N. Brothers, K. N. Kudin, 
 V. N. Staroverov, T. A. Keith, R. Kobayashi, J. Normand, 
 K. Raghavachari, A. P. Rendell, J. C. Burant, S. S. Iyengar, 
 J. Tomasi, M. Cossi, J. M. Millam, M. Klene, C. Adamo, R. Cammi, 
 J. W. Ochterski, R. L. Martin, K. Morokuma, O. Farkas, 
 J. B. Foresman, and D. J. Fox, Gaussian, Inc., Wallingford CT, 2016.
 
 ******************************************
 Gaussian 16:  ES64L-G16RevB.01 20-Dec-2017
                 9-Dec-2025 
 ******************************************
 %mem=8GB
 %nprocshare=4
 Will use up to    4 processors via shared memory.
 %oldchk=geometry_chks/12ClBzAnionRadical.chk
 %chk=frequency_chks/12ClBzAnionRadical_Freq.chk
 Copying data from "geometry_chks/12ClBzAnionRadical.chk" to current chk file "frequency_chks/12ClBzAnionRadical_Freq.chk"
 IOpt=  2 FromEx=T IUOpen= 4 IOptOp= 5 NList=   0 IFRang= 0 IUIn= 4 IUOut= 2.
 -------------------------------------------------------
 # opt freq 6-311++g(d,p) guess=read geom=allcheck m062x
 -------------------------------------------------------
 1/18=20,19=15,26=3,29=7,38=1/1,3;
 2/9=110,12=2,40=1/2;
 3/5=4,6=6,7=1111,11=2,14=-4,25=1,30=1,71=1,74=-55,116=-2/1,2,3;
 4/5=1/1;
 5/5=2,38=6/2;
 6/7=2,8=2,9=2,10=2,28=1/1;
 7//1,2,3,16;
 1/18=20,19=15,26=3/3(2);
 2/9=110/2;
 99//99;
 2/9=110/2;
 3/5=4,6=6,7=1111,11=2,14=-2,25=1,30=1,71=1,74=-55/1,2,3;
 4/5=5,16=3,69=1/1;
 5/5=2,38=5/2;
 7//1,2,3,16;
 1/18=20,19=15,26=3/3(-5);
 2/9=110/2;
 6/7=2,8=2,9=2,10=2,19=2,28=1/1;
 99/9=1/99;
 Structure from the checkpoint file:  "frequency_chks/12ClBzAnionRadical_Freq.chk"
 -----------------------------------
 2-Chloro-Benzene Anion Radical (12)
 -----------------------------------
 Charge = -1 Multiplicity = 2
 Redundant internal coordinates found in file.  (old form).
 C,0,-3.1168977222,0.2121491609,0.
 C,0,-1.9198194034,0.9318278339,0.
 C,0,-0.700284678,0.2770580837,0.
 C,0,-0.6611996297,-1.1456832434,0.
 C,0,-1.8429504518,-1.8664193685,0.
 C,0,-3.07773353,-1.2135422604,0.
 Cl,0,-4.5225255063,-2.1364760716,0.
 Cl,0,-4.6101782039,1.0543747466,0.
 H,0,-1.9522710751,2.0317198579,0.
 H,0,0.2377160275,0.8411146827,0.
 H,0,0.3064116459,-1.6574222714,0.
 H,0,-1.8149674732,-2.9665311504,0.
 Recover connectivity data from disk.

 GradGradGradGradGradGradGradGradGradGradGradGradGradGradGradGradGradGrad
 Berny optimization.
 Initialization pass.
                           ----------------------------
                           !    Initial Parameters    !
                           ! (Angstroms and Degrees)  !
 --------------------------                            --------------------------
 ! Name  Definition              Value          Derivative Info.                !
 --------------------------------------------------------------------------------
 ! R1    R(1,2)                  1.3968         estimate D2E/DX2                !
 ! R2    R(1,6)                  1.4262         estimate D2E/DX2                !
 ! R3    R(1,8)                  1.7144         estimate D2E/DX2                !
 ! R4    R(2,3)                  1.3842         estimate D2E/DX2                !
 ! R5    R(2,9)                  1.1004         estimate D2E/DX2                !
 ! R6    R(3,4)                  1.4233         estimate D2E/DX2                !
 ! R7    R(3,10)                 1.0945         estimate D2E/DX2                !
 ! R8    R(4,5)                  1.3842         estimate D2E/DX2                !
 ! R9    R(4,11)                 1.0946         estimate D2E/DX2                !
 ! R10   R(5,6)                  1.3968         estimate D2E/DX2                !
 ! R11   R(5,12)                 1.1005         estimate D2E/DX2                !
 ! R12   R(6,7)                  1.7144         estimate D2E/DX2                !
 ! A1    A(2,1,6)              119.4406         estimate D2E/DX2                !
 ! A2    A(2,1,8)              119.5624         estimate D2E/DX2                !
 ! A3    A(6,1,8)              120.997          estimate D2E/DX2                !
 ! A4    A(1,2,3)              120.7545         estimate D2E/DX2                !
 ! A5    A(1,2,9)              119.3241         estimate D2E/DX2                !
 ! A6    A(3,2,9)              119.9214         estimate D2E/DX2                !
 ! A7    A(2,3,4)              119.805          estimate D2E/DX2                !
 ! A8    A(2,3,10)             120.7484         estimate D2E/DX2                !
 ! A9    A(4,3,10)             119.4465         estimate D2E/DX2                !
 ! A10   A(3,4,5)              119.8049         estimate D2E/DX2                !
 ! A11   A(3,4,11)             119.4466         estimate D2E/DX2                !
 ! A12   A(5,4,11)             120.7485         estimate D2E/DX2                !
 ! A13   A(4,5,6)              120.7543         estimate D2E/DX2                !
 ! A14   A(4,5,12)             119.9214         estimate D2E/DX2                !
 ! A15   A(6,5,12)             119.3242         estimate D2E/DX2                !
 ! A16   A(1,6,5)              119.4407         estimate D2E/DX2                !
 ! A17   A(1,6,7)              120.9969         estimate D2E/DX2                !
 ! A18   A(5,6,7)              119.5624         estimate D2E/DX2                !
 ! D1    D(6,1,2,3)              0.0            estimate D2E/DX2                !
 ! D2    D(6,1,2,9)            180.0            estimate D2E/DX2                !
 ! D3    D(8,1,2,3)            180.0            estimate D2E/DX2                !
 ! D4    D(8,1,2,9)              0.0            estimate D2E/DX2                !
 ! D5    D(2,1,6,5)              0.0            estimate D2E/DX2                !
 ! D6    D(2,1,6,7)            180.0            estimate D2E/DX2                !
 ! D7    D(8,1,6,5)            180.0            estimate D2E/DX2                !
 ! D8    D(8,1,6,7)              0.0            estimate D2E/DX2                !
 ! D9    D(1,2,3,4)              0.0            estimate D2E/DX2                !
 ! D10   D(1,2,3,10)           180.0            estimate D2E/DX2                !
 ! D11   D(9,2,3,4)            180.0            estimate D2E/DX2                !
 ! D12   D(9,2,3,10)             0.0            estimate D2E/DX2                !
 ! D13   D(2,3,4,5)              0.0            estimate D2E/DX2                !
 ! D14   D(2,3,4,11)           180.0            estimate D2E/DX2                !
 ! D15   D(10,3,4,5)           180.0            estimate D2E/DX2                !
 ! D16   D(10,3,4,11)            0.0            estimate D2E/DX2                !
 ! D17   D(3,4,5,6)              0.0            estimate D2E/DX2                !
 ! D18   D(3,4,5,12)           180.0            estimate D2E/DX2                !
 ! D19   D(11,4,5,6)           180.0            estimate D2E/DX2                !
 ! D20   D(11,4,5,12)            0.0            estimate D2E/DX2                !
 ! D21   D(4,5,6,1)              0.0            estimate D2E/DX2                !
 ! D22   D(4,5,6,7)            180.0            estimate D2E/DX2                !
 ! D23   D(12,5,6,1)           180.0            estimate D2E/DX2                !
 ! D24   D(12,5,6,7)             0.0            estimate D2E/DX2                !
 --------------------------------------------------------------------------------
 Trust Radius=3.00D-01 FncErr=1.00D-07 GrdErr=1.00D-06 EigMax=2.50D+02 EigMin=1.00D-04
 Number of steps in this run=     64 maximum allowed number of steps=    100.
 GradGradGradGradGradGradGradGradGradGradGradGradGradGradGradGradGradGrad

                          Input orientation:                          
 ---------------------------------------------------------------------
 Center     Atomic      Atomic             Coordinates (Angstroms)
 Number     Number       Type             X           Y           Z
 ---------------------------------------------------------------------
      1          6           0       -3.116898    0.212149    0.000000
      2          6           0       -1.919819    0.931828   -0.000000
      3          6           0       -0.700285    0.277058   -0.000000
      4          6           0       -0.661200   -1.145683   -0.000000
      5          6           0       -1.842950   -1.866419   -0.000000
      6          6           0       -3.077734   -1.213542    0.000000
      7         17           0       -4.522526   -2.136476    0.000000
      8         17           0       -4.610178    1.054375    0.000000
      9          1           0       -1.952271    2.031720   -0.000000
     10          1           0        0.237716    0.841115   -0.000000
     11          1           0        0.306412   -1.657422   -0.000000
     12          1           0       -1.814967   -2.966531   -0.000000
 ---------------------------------------------------------------------
                    Distance matrix (angstroms):
                    1          2          3          4          5
     1  C    0.000000
     2  C    1.396758   0.000000
     3  C    2.417485   1.384192   0.000000
     4  C    2.806094   2.429028   1.423278   0.000000
     5  C    2.437907   2.799303   2.429029   1.384195   0.000000
     6  C    1.426229   2.437904   2.806092   2.417486   1.396760
     7  Cl   2.737121   4.023502   4.520473   3.986415   2.693149
     8  Cl   1.714418   2.693148   3.986413   4.520474   4.023504
     9  H    2.160369   1.100371   2.155530   3.429687   3.899672
    10  H    3.413068   2.159442   1.094534   2.180691   3.414662
    11  H    3.900557   3.414721   2.180746   1.094600   2.159499
    12  H    3.434972   3.899769   3.429780   2.155613   1.100468
                    6          7          8          9         10
     6  C    0.000000
     7  Cl   1.714418   0.000000
     8  Cl   2.737122   3.192055   0.000000
     9  H    3.434879   4.896944   2.831903   0.000000
    10  H    3.900490   5.614797   4.852583   2.492706   0.000000
    11  H    3.413132   4.852641   5.614864   4.325670   2.499481
    12  H    2.160451   2.831936   4.897028   5.000137   4.325700
                   11         12
    11  H    0.000000
    12  H    2.492793   0.000000
 Stoichiometry    C6H4Cl2(1-,2)
 Framework group  CS[SG(C6H4Cl2)]
 Deg. of freedom    21
 Full point group                 CS      NOp   2
 Largest Abelian subgroup         CS      NOp   2
 Largest concise Abelian subgroup C1      NOp   1
                         Standard orientation:                         
 ---------------------------------------------------------------------
 Center     Atomic      Atomic             Coordinates (Angstroms)
 Number     Number       Type             X           Y           Z
 ---------------------------------------------------------------------
      1          6           0       -0.037973   -0.713116    0.000000
      2          6           0        1.178416   -1.399652   -0.000000
      3          6           0        2.379511   -0.711640   -0.000000
      4          6           0        2.379513    0.711638   -0.000000
      5          6           0        1.178416    1.399651   -0.000000
      6          6           0       -0.037973    0.713113    0.000000
      7         17           0       -1.507564    1.596025    0.000000
      8         17           0       -1.507563   -1.596030    0.000000
      9          1           0        1.176180   -2.500020   -0.000000
     10          1           0        3.332647   -1.249727   -0.000000
     11          1           0        3.332707    1.249754   -0.000000
     12          1           0        1.176179    2.500116   -0.000000
 ---------------------------------------------------------------------
 Rotational constants (GHZ):           1.9051147           1.4340494           0.8181774
 Standard basis: 6-311++G(d,p) (5D, 7F)
 There are   172 symmetry adapted cartesian basis functions of A'  symmetry.
 There are    56 symmetry adapted cartesian basis functions of A"  symmetry.
 There are   164 symmetry adapted basis functions of A'  symmetry.
 There are    56 symmetry adapted basis functions of A"  symmetry.
   220 basis functions,   358 primitive gaussians,   228 cartesian basis functions
    38 alpha electrons       37 beta electrons
       nuclear repulsion energy       469.1089653963 Hartrees.
 NAtoms=   12 NActive=   12 NUniq=   12 SFac= 1.00D+00 NAtFMM=   60 NAOKFM=F Big=F
 Integral buffers will be    131072 words long.
 Raffenetti 2 integral format.
 Two-electron integral symmetry is turned on.
 One-electron integrals computed using PRISM.
 NBasis=   220 RedAO= T EigKep=  2.34D-06  NBF=   164    56
 NBsUse=   219 1.00D-06 EigRej=  9.59D-07 NBFU=   163    56
 Initial guess from the checkpoint file:  "frequency_chks/12ClBzAnionRadical_Freq.chk"
 B after Tr=     0.000000   -0.000000    0.000000
         Rot=    1.000000    0.000000   -0.000000   -0.000000 Ang=   0.00 deg.
 Initial guess orbital symmetries:
 Alpha Orbitals:
       Occupied  (A') (A') (A') (A') (A') (A') (A') (A') (A') (A')
                 (A") (A') (A') (A") (A') (A') (A") (A') (A') (A")
                 (A") (A") (A") (A') (A') (A") (A') (A') (A') (A')
                 (A') (A') (A') (A') (A') (A') (A') (A')
       Virtual   (A') (A') (A') (A') (A') (A') (A') (A') (A') (A')
                 (A') (A') (A') (A') (A') (A') (A') (A') (A') (A')
                 (A') (A') (A') (A') (A') (A') (A') (A') (A') (A')
                 (A') (A') (A') (A') (A') (A') (A') (A') (A') (A')
                 (A') (A') (A') (A') (A') (A') (A') (A') (A') (A')
                 (A') (A') (A') (A') (A') (A') (A') (A') (A') (A')
                 (A') (A') (A') (A') (A') (A') (A') (A') (A') (A')
                 (A') (A') (A') (A') (A') (A') (A') (A') (A') (A')
                 (A') (A') (A') (A') (A') (A') (A') (A') (A') (A')
                 (A') (A') (A') (A') (A') (A') (A') (A') (A') (A')
                 (A') (A') (A') (A') (A') (A') (A') (A') (A') (A')
                 (A') (A') (A') (A') (A') (A') (A') (A') (A') (A')
                 (A') (A') (A') (A') (A') (A') (A') (A') (A') (A')
                 (A') (A') (A') (A") (A") (A") (A") (A") (A") (A")
                 (A") (A") (A") (A") (A") (A") (A") (A") (A") (A")
                 (A") (A") (A") (A") (A") (A") (A") (A") (A") (A")
                 (A") (A") (A") (A") (A") (A") (A") (A") (A") (A")
                 (A") (A") (A") (A") (A") (A") (A") (A") (A") (A")
                 (A")
 Beta  Orbitals:
       Occupied  (A') (A') (A') (A') (A') (A') (A') (A') (A') (A')
                 (A') (A') (A") (A") (A') (A') (A") (A') (A') (A")
                 (A") (A") (A") (A') (A') (A") (A') (A') (A') (A')
                 (A') (A') (A') (A') (A') (A') (A')
       Virtual   (A') (A') (A') (A') (A') (A') (A') (A') (A') (A')
                 (A') (A') (A') (A') (A') (A') (A') (A') (A') (A')
                 (A') (A') (A') (A') (A') (A') (A') (A') (A') (A')
                 (A') (A') (A') (A') (A') (A') (A') (A') (A') (A')
                 (A') (A') (A') (A') (A') (A') (A') (A') (A') (A')
                 (A') (A') (A') (A') (A') (A') (A') (A') (A') (A')
                 (A') (A') (A') (A') (A') (A') (A') (A') (A') (A')
                 (A') (A') (A') (A') (A') (A') (A') (A') (A') (A')
                 (A') (A') (A') (A') (A') (A') (A') (A') (A') (A')
                 (A') (A') (A') (A') (A') (A') (A') (A') (A') (A')
                 (A') (A') (A') (A') (A') (A') (A') (A') (A') (A')
                 (A') (A') (A') (A') (A') (A') (A') (A') (A') (A')
                 (A') (A') (A') (A') (A') (A') (A') (A') (A') (A')
                 (A') (A') (A') (A') (A") (A") (A") (A") (A") (A")
                 (A") (A") (A") (A") (A") (A") (A") (A") (A") (A")
                 (A") (A") (A") (A") (A") (A") (A") (A") (A") (A")
                 (A") (A") (A") (A") (A") (A") (A") (A") (A") (A")
                 (A") (A") (A") (A") (A") (A") (A") (A") (A") (A")
                 (A") (A")
 Initial guess <Sx>= 0.0000 <Sy>= 0.0000 <Sz>= 0.5000 <S**2>= 0.7500 S= 0.5000
 Keep R1 and R2 ints in memory in symmetry-blocked form, NReq=469802474.
 Requested convergence on RMS density matrix=1.00D-08 within 128 cycles.
 Requested convergence on MAX density matrix=1.00D-06.
 Requested convergence on             energy=1.00D-06.
 No special actions if energy rises.
 EnCoef did     5 forward-backward iterations
 SCF Done:  E(UM062X) =  -1151.36776742     A.U. after   40 cycles
            NFock= 40  Conv=0.98D-08     -V/T= 2.0026
 <Sx>= 0.0000 <Sy>= 0.0000 <Sz>= 0.5000 <S**2>= 0.7507 S= 0.5003
 <L.S>=  0.00000000000    
 Annihilation of the first spin contaminant:
 S**2 before annihilation     0.7507,   after     0.7500

 **********************************************************************

            Population analysis using the SCF Density.

 **********************************************************************

 Orbital symmetries:
 Alpha Orbitals:
       Occupied  (A') (A') (A') (A') (A') (A') (A') (A') (A') (A')
                 (A') (A') (A") (A") (A') (A') (A') (A') (A') (A')
                 (A') (A') (A') (A') (A') (A') (A') (A') (A") (A')
                 (A") (A') (A") (A') (A') (A") (A") (A')
       Virtual   (A') (A') (A") (A") (A') (A') (A') (A") (A') (A')
                 (A') (A") (A") (A') (A') (A") (A') (A') (A') (A")
                 (A') (A") (A') (A') (A") (A') (A') (A') (A') (A')
                 (A") (A') (A') (A") (A') (A') (A') (A') (A') (A')
                 (A') (A') (A') (A') (A') (A') (A') (A') (A") (A')
                 (A') (A') (A") (A') (A') (A') (A") (A') (A') (A")
                 (A") (A') (A') (A") (A") (A') (A") (A') (A') (A')
                 (A') (A') (A") (A') (A') (A') (A') (A') (A') (A")
                 (A") (A') (A') (A") (A') (A') (A') (A') (A") (A')
                 (A") (A') (A") (A') (A") (A') (A') (A') (A") (A')
                 (A") (A') (A') (A') (A') (A") (A") (A') (A') (A')
                 (A") (A') (A") (A') (A') (A') (A") (A") (A") (A')
                 (A') (A') (A') (A") (A') (A") (A") (A') (A') (A")
                 (A") (A') (A') (A') (A') (A') (A') (A') (A') (A")
                 (A') (A') (A') (A') (A') (A') (A") (A") (A') (A")
                 (A") (A") (A') (A') (A') (A') (A') (A') (A') (A')
                 (A') (A') (A') (A') (A') (A') (A') (A') (A') (A')
                 (A') (A') (A') (A") (A") (A') (A') (A') (A') (A')
                 (A')
 Beta  Orbitals:
       Occupied  (A') (A') (A') (A') (A') (A') (A') (A') (A') (A')
                 (A') (A') (A") (A") (A') (A') (A') (A') (A') (A')
                 (A') (A') (A') (A') (A') (A') (A') (A') (A") (A')
                 (A") (A') (A") (A') (A') (A") (A")
       Virtual   (A") (A') (A") (A') (A') (A') (A") (A') (A') (A')
                 (A") (A") (A') (A') (A') (A") (A') (A") (A') (A')
                 (A') (A") (A") (A') (A') (A') (A') (A") (A') (A')
                 (A') (A") (A') (A') (A') (A') (A') (A') (A') (A')
                 (A') (A') (A') (A') (A') (A') (A') (A') (A") (A')
                 (A') (A') (A') (A") (A') (A') (A") (A') (A') (A')
                 (A") (A") (A') (A') (A") (A") (A') (A") (A') (A')
                 (A') (A') (A') (A") (A') (A') (A') (A') (A') (A")
                 (A") (A') (A') (A') (A") (A') (A') (A') (A') (A")
                 (A') (A") (A') (A") (A') (A") (A') (A') (A') (A")
                 (A') (A") (A') (A') (A') (A') (A") (A") (A') (A')
                 (A') (A") (A') (A") (A') (A') (A") (A') (A") (A")
                 (A') (A') (A') (A') (A") (A') (A") (A") (A') (A')
                 (A") (A") (A') (A') (A') (A') (A') (A') (A') (A')
                 (A") (A') (A') (A') (A') (A') (A') (A") (A") (A')
                 (A") (A") (A") (A') (A') (A') (A') (A') (A') (A')
                 (A') (A') (A') (A') (A') (A') (A') (A') (A') (A')
                 (A') (A') (A') (A') (A") (A") (A') (A') (A') (A')
                 (A') (A')
 The electronic state is 2-A'.
 Alpha  occ. eigenvalues -- -102.58574-102.58574 -10.51637 -10.51573 -10.45520
 Alpha  occ. eigenvalues --  -10.45518 -10.44610 -10.44543  -9.72893  -9.72891
 Alpha  occ. eigenvalues --   -7.45405  -7.45404  -7.44743  -7.44743  -7.44723
 Alpha  occ. eigenvalues --   -7.44723  -0.92275  -0.86843  -0.83333  -0.74115
 Alpha  occ. eigenvalues --   -0.71328  -0.59506  -0.57775  -0.48953  -0.44879
 Alpha  occ. eigenvalues --   -0.43670  -0.39854  -0.39708  -0.38939  -0.33200
 Alpha  occ. eigenvalues --   -0.32249  -0.32148  -0.29717  -0.29085  -0.27775
 Alpha  occ. eigenvalues --   -0.20889  -0.18985   0.04397
 Alpha virt. eigenvalues --    0.09893   0.10641   0.10719   0.11383   0.12088
 Alpha virt. eigenvalues --    0.12761   0.14891   0.15859   0.16644   0.17180
 Alpha virt. eigenvalues --    0.18094   0.18466   0.18551   0.20289   0.20492
 Alpha virt. eigenvalues --    0.20538   0.21579   0.21635   0.21955   0.23091
 Alpha virt. eigenvalues --    0.23855   0.24576   0.24847   0.25154   0.25552
 Alpha virt. eigenvalues --    0.26273   0.26485   0.26641   0.30092   0.30363
 Alpha virt. eigenvalues --    0.30427   0.31480   0.31494   0.31853   0.33487
 Alpha virt. eigenvalues --    0.34429   0.35092   0.36703   0.37393   0.37977
 Alpha virt. eigenvalues --    0.39240   0.39416   0.41665   0.44913   0.45886
 Alpha virt. eigenvalues --    0.46405   0.46815   0.55716   0.56024   0.56846
 Alpha virt. eigenvalues --    0.58602   0.59365   0.59979   0.60678   0.62960
 Alpha virt. eigenvalues --    0.66365   0.66535   0.68750   0.69161   0.71511
 Alpha virt. eigenvalues --    0.71695   0.74391   0.74579   0.74895   0.75507
 Alpha virt. eigenvalues --    0.79993   0.81095   0.82250   0.85682   0.86325
 Alpha virt. eigenvalues --    0.86414   0.91333   0.92150   0.94861   0.96564
 Alpha virt. eigenvalues --    0.97981   0.99455   1.00909   1.01493   1.02111
 Alpha virt. eigenvalues --    1.02203   1.02248   1.03870   1.06431   1.08147
 Alpha virt. eigenvalues --    1.08210   1.10728   1.11214   1.15014   1.15476
 Alpha virt. eigenvalues --    1.16324   1.19828   1.25367   1.26121   1.28039
 Alpha virt. eigenvalues --    1.31360   1.39800   1.43686   1.43695   1.44538
 Alpha virt. eigenvalues --    1.45923   1.54127   1.61506   1.64610   1.68177
 Alpha virt. eigenvalues --    1.71078   1.71626   1.74815   1.79048   1.79449
 Alpha virt. eigenvalues --    1.82904   1.86882   1.87866   1.93381   1.99052
 Alpha virt. eigenvalues --    2.02084   2.02232   2.04559   2.05599   2.06950
 Alpha virt. eigenvalues --    2.07970   2.14618   2.14956   2.16612   2.27643
 Alpha virt. eigenvalues --    2.35392   2.37933   2.38319   2.39443   2.43883
 Alpha virt. eigenvalues --    2.44795   2.54061   2.54350   2.56798   2.59942
 Alpha virt. eigenvalues --    2.64599   2.68865   2.69127   2.73568   2.80214
 Alpha virt. eigenvalues --    2.82115   2.84803   2.85408   2.86499   2.87799
 Alpha virt. eigenvalues --    2.93411   2.94015   2.94702   2.99214   3.04270
 Alpha virt. eigenvalues --    3.04278   3.22595   3.26835   3.33750   3.37542
 Alpha virt. eigenvalues --    3.46455   3.54799   3.63288   3.65809   3.87869
 Alpha virt. eigenvalues --    3.98998   4.17142   4.20548   4.26054   4.93016
 Alpha virt. eigenvalues --   10.05030  10.10419  23.64162  24.02370  24.08074
 Alpha virt. eigenvalues --   24.14757  24.27101  24.33007  25.99122  26.07485
 Alpha virt. eigenvalues --   26.29632  26.37574  26.70734  26.95203 216.14850
 Alpha virt. eigenvalues --  216.21110
  Beta  occ. eigenvalues -- -102.58566-102.58566 -10.51626 -10.51562 -10.45500
  Beta  occ. eigenvalues --  -10.45498 -10.44566 -10.44500  -9.72890  -9.72889
  Beta  occ. eigenvalues --   -7.45390  -7.45390  -7.44737  -7.44736  -7.44717
  Beta  occ. eigenvalues --   -7.44717  -0.92232  -0.86804  -0.83269  -0.74050
  Beta  occ. eigenvalues --   -0.71260  -0.59453  -0.57708  -0.48840  -0.44847
  Beta  occ. eigenvalues --   -0.43623  -0.39833  -0.39666  -0.38918  -0.33184
  Beta  occ. eigenvalues --   -0.32232  -0.32115  -0.29723  -0.29076  -0.27755
  Beta  occ. eigenvalues --   -0.20899  -0.18994
  Beta virt. eigenvalues --    0.10753   0.10977   0.11150   0.12673   0.13081
  Beta virt. eigenvalues --    0.15472   0.15995   0.16261   0.16974   0.17885
  Beta virt. eigenvalues --    0.18493   0.18736   0.19325   0.20346   0.21929
  Beta virt. eigenvalues --    0.22256   0.23299   0.23718   0.23925   0.24299
  Beta virt. eigenvalues --    0.25256   0.25670   0.26733   0.29184   0.29323
  Beta virt. eigenvalues --    0.29683   0.29884   0.30286   0.31592   0.32284
  Beta virt. eigenvalues --    0.32997   0.34498   0.35950   0.35972   0.37602
  Beta virt. eigenvalues --    0.37977   0.38525   0.39044   0.39341   0.40404
  Beta virt. eigenvalues --    0.40980   0.42139   0.43173   0.46201   0.48033
  Beta virt. eigenvalues --    0.48629   0.51399   0.51571   0.56514   0.57296
  Beta virt. eigenvalues --    0.57951   0.59231   0.59686   0.60551   0.60951
  Beta virt. eigenvalues --    0.64171   0.67079   0.68644   0.69751   0.69866
  Beta virt. eigenvalues --    0.71981   0.72249   0.74182   0.75139   0.75674
  Beta virt. eigenvalues --    0.76019   0.80560   0.81837   0.82093   0.86812
  Beta virt. eigenvalues --    0.87576   0.88631   0.91635   0.92223   0.95319
  Beta virt. eigenvalues --    0.96989   0.98231   0.99928   1.01627   1.02135
  Beta virt. eigenvalues --    1.02219   1.03222   1.03394   1.04274   1.06534
  Beta virt. eigenvalues --    1.08259   1.08521   1.11096   1.11701   1.15087
  Beta virt. eigenvalues --    1.15621   1.16420   1.19927   1.25450   1.26140
  Beta virt. eigenvalues --    1.28125   1.31524   1.39947   1.43663   1.43777
  Beta virt. eigenvalues --    1.44914   1.45996   1.54371   1.61679   1.65018
  Beta virt. eigenvalues --    1.68464   1.71316   1.71741   1.75074   1.79362
  Beta virt. eigenvalues --    1.79696   1.82957   1.87006   1.88061   1.93594
  Beta virt. eigenvalues --    1.99214   2.02311   2.02603   2.04668   2.05676
  Beta virt. eigenvalues --    2.07285   2.08689   2.14801   2.15366   2.16706
  Beta virt. eigenvalues --    2.27689   2.35548   2.38054   2.38532   2.39596
  Beta virt. eigenvalues --    2.43944   2.44908   2.54225   2.54484   2.57368
  Beta virt. eigenvalues --    2.60212   2.64696   2.69041   2.69227   2.73635
  Beta virt. eigenvalues --    2.80416   2.83170   2.85318   2.86080   2.86996
  Beta virt. eigenvalues --    2.88272   2.93627   2.94207   2.94863   2.99340
  Beta virt. eigenvalues --    3.04436   3.04443   3.22748   3.26968   3.33831
  Beta virt. eigenvalues --    3.37682   3.46605   3.55041   3.63603   3.65946
  Beta virt. eigenvalues --    3.88030   3.99159   4.17641   4.20891   4.26261
  Beta virt. eigenvalues --    4.93205  10.05046  10.10433  23.64179  24.02386
  Beta virt. eigenvalues --   24.08109  24.14791  24.27136  24.33044  25.99176
  Beta virt. eigenvalues --   26.07545  26.29673  26.37629  26.70792  26.95263
  Beta virt. eigenvalues --  216.14865 216.21125
          Condensed to atoms (all electrons):
               1          2          3          4          5          6
     1  C   31.287102  -6.367302 -11.123740  -3.636500  -6.669736  -2.501158
     2  C   -6.367302  18.671901   0.749274  -4.752492   1.021592  -6.669655
     3  C  -11.123740   0.749274  34.939410  13.005595  -4.752400  -3.635618
     4  C   -3.636500  -4.752492  13.005595  34.936908   0.749424 -11.121661
     5  C   -6.669736   1.021592  -4.752400   0.749424  18.671971  -6.367322
     6  C   -2.501158  -6.669655  -3.635618 -11.121661  -6.367322  31.285653
     7  Cl  -0.159504   0.743286   0.834506   0.909411   1.608966  -4.005418
     8  Cl  -4.005236   1.608772   0.909407   0.834377   0.743205  -0.159288
     9  H    4.769356  -1.667286  -6.550260  -2.106832   0.266778   0.465109
    10  H    3.084485   1.438576 -11.184787  -7.008690   1.845783   1.194393
    11  H    1.194701   1.845721  -7.008362 -11.183578   1.438381   3.083734
    12  H    0.465414   0.266769  -2.106842  -6.549729  -1.667520   4.768980
               7          8          9         10         11         12
     1  C   -0.159504  -4.005236   4.769356   3.084485   1.194701   0.465414
     2  C    0.743286   1.608772  -1.667286   1.438576   1.845721   0.266769
     3  C    0.834506   0.909407  -6.550260 -11.184787  -7.008362  -2.106842
     4  C    0.909411   0.834377  -2.106832  -7.008690 -11.183578  -6.549729
     5  C    1.608966   0.743205   0.266778   1.845783   1.438381  -1.667520
     6  C   -4.005418  -0.159288   0.465109   1.194393   3.083734   4.768980
     7  Cl  18.245505  -0.028862  -0.231317  -0.191574  -0.395527  -0.775744
     8  Cl  -0.028862  18.245341  -0.775647  -0.395520  -0.191528  -0.231273
     9  H   -0.231317  -0.775647   3.191631   2.510359   1.076765   0.484387
    10  H   -0.191574  -0.395520   2.510359   6.181861   3.658382   1.076813
    11  H   -0.395527  -0.191528   1.076765   3.658382   6.181160   2.510159
    12  H   -0.775744  -0.231273   0.484387   1.076813   2.510159   3.191649
          Atomic-Atomic Spin Densities.
               1          2          3          4          5          6
     1  C   15.482579  -7.427786  -9.294821  -2.444198  -1.689435  -0.317249
     2  C   -7.427786   8.657363  -1.295554  -3.945401   2.187053  -1.689244
     3  C   -9.294821  -1.295554  26.789582  13.471689  -3.945381  -2.443286
     4  C   -2.444198  -3.945401  13.471689  26.786967  -1.295395  -9.292739
     5  C   -1.689435   2.187053  -3.945381  -1.295395   8.657553  -7.427808
     6  C   -0.317249  -1.689244  -2.443286  -9.292739  -7.427808  15.481039
     7  Cl  -0.561900   0.513081   0.492568   1.161180   1.767737  -2.850514
     8  Cl  -2.850335   1.767529   1.161155   0.492443   0.513013  -0.561677
     9  H    4.863865  -2.117587  -6.484756  -2.136638   0.235064   0.508977
    10  H    3.165799   1.495139 -11.702771  -6.892396   1.838241   1.123153
    11  H    1.123472   1.838179  -6.892082 -11.701531   1.494930   3.165043
    12  H    0.509252   0.235058  -2.136642  -6.484245  -2.117778   4.863485
               7          8          9         10         11         12
     1  C   -0.561900  -2.850335   4.863865   3.165799   1.123472   0.509252
     2  C    0.513081   1.767529  -2.117587   1.495139   1.838179   0.235058
     3  C    0.492568   1.161155  -6.484756 -11.702771  -6.892082  -2.136642
     4  C    1.161180   0.492443  -2.136638  -6.892396 -11.701531  -6.484245
     5  C    1.767737   0.513013   0.235064   1.838241   1.494930  -2.117778
     6  C   -2.850514  -0.561677   0.508977   1.123153   3.165043   4.863485
     7  Cl   0.736874   0.247302  -0.218532  -0.200779  -0.377736  -0.783873
     8  Cl   0.247302   0.736722  -0.783782  -0.377728  -0.200730  -0.218491
     9  H   -0.218532  -0.783782   2.702709   2.525021   1.074720   0.483314
    10  H   -0.200779  -0.377728   2.525021   5.701387   3.675632   1.074768
    11  H   -0.377736  -0.200730   1.074720   3.675632   5.700714   2.524814
    12  H   -0.783873  -0.218491   0.483314   1.074768   2.524814   2.702758
 Mulliken charges and spin densities:
               1          2
     1  C   -0.337882   0.559242
     2  C   -0.889155   0.217831
     3  C    1.923817  -2.280299
     4  C    1.923768  -2.280265
     5  C   -0.889122   0.217795
     6  C   -0.337751   0.559179
     7  Cl   0.446272  -0.074593
     8  Cl   0.446252  -0.074579
     9  H   -0.433045   0.652374
    10  H   -1.210081   1.425469
    11  H   -1.210009   1.425426
    12  H   -0.433063   0.652419
 Sum of Mulliken charges =  -1.00000   1.00000
 Mulliken charges and spin densities with hydrogens summed into heavy atoms:
               1          2
     1  C   -0.337882   0.559242
     2  C   -1.322200   0.870206
     3  C    0.713736  -0.854830
     4  C    0.713759  -0.854839
     5  C   -1.322185   0.870214
     6  C   -0.337751   0.559179
     7  Cl   0.446272  -0.074593
     8  Cl   0.446252  -0.074579
 Electronic spatial extent (au):  <R**2>=           1394.2572
 Charge=             -1.0000 electrons
 Dipole moment (field-independent basis, Debye):
    X=            -12.8272    Y=             -0.0006    Z=             -0.0000  Tot=             12.8272
 Quadrupole moment (field-independent basis, Debye-Ang):
   XX=           -135.3664   YY=            -98.2565   ZZ=            -81.6179
   XY=             -0.0015   XZ=             -0.0000   YZ=             -0.0000
 Traceless Quadrupole moment (field-independent basis, Debye-Ang):
   XX=            -30.2862   YY=              6.8238   ZZ=             23.4624
   XY=             -0.0015   XZ=             -0.0000   YZ=             -0.0000
 Octapole moment (field-independent basis, Debye-Ang**2):
  XXX=           -399.7598  YYY=             -0.0125  ZZZ=             -0.0000  XYY=           -113.2932
  XXY=             -0.0056  XXZ=             -0.0000  XZZ=            -64.5236  YZZ=             -0.0018
  YYZ=             -0.0000  XYZ=             -0.0000
 Hexadecapole moment (field-independent basis, Debye-Ang**3):
 XXXX=          -3158.3257 YYYY=          -1444.6156 ZZZZ=           -244.6098 XXXY=             -0.0241
 XXXZ=             -0.0000 YYYX=             -0.0270 YYYZ=             -0.0000 ZZZX=             -0.0000
 ZZZY=             -0.0000 XXYY=           -756.8716 XXZZ=           -434.3378 YYZZ=           -259.8933
 XXYZ=             -0.0000 YYXZ=             -0.0000 ZZXY=             -0.0040
 N-N= 4.691089653963D+02 E-N=-3.669906262706D+03  KE= 1.148434195605D+03
 Symmetry A'   KE= 1.050261503702D+03
 Symmetry A"   KE= 9.817269190225D+01
 Symmetry A'   SP= 1.000000000000D+00
 Symmetry A"   SP= 1.848062244143D-14
                          Isotropic Fermi Contact Couplings
        Atom                 a.u.       MegaHertz       Gauss      10(-4) cm-1
     1  C(13)              0.00994      11.16947       3.98555       3.72573
     2  C(13)              0.01483      16.67033       5.94839       5.56062
     3  C(13)              0.03593      40.39392      14.41356      13.47396
     4  C(13)              0.03594      40.40021      14.41580      13.47606
     5  C(13)              0.01483      16.67497       5.95004       5.56217
     6  C(13)              0.00993      11.16811       3.98506       3.72528
     7  Cl(35)             0.00012       0.05427       0.01936       0.01810
     8  Cl(35)             0.00012       0.05417       0.01933       0.01807
     9  H(1)               0.00009       0.41014       0.14635       0.13681
    10  H(1)              -0.00007      -0.29132      -0.10395      -0.09717
    11  H(1)              -0.00007      -0.29371      -0.10480      -0.09797
    12  H(1)               0.00009       0.40929       0.14605       0.13653
 --------------------------------------------------------
       Center         ----  Spin Dipole Couplings  ----
                      3XX-RR        3YY-RR        3ZZ-RR
 --------------------------------------------------------
     1   Atom        0.000563     -0.001079      0.000516
     2   Atom       -0.004014      0.007481     -0.003467
     3   Atom        0.009666     -0.000175     -0.009491
     4   Atom        0.009670     -0.000176     -0.009493
     5   Atom       -0.004017      0.007486     -0.003469
     6   Atom        0.000563     -0.001079      0.000516
     7   Atom        0.001891      0.007681     -0.009571
     8   Atom        0.001889      0.007680     -0.009569
     9   Atom       -0.001352      0.004547     -0.003194
    10   Atom        0.007124     -0.000820     -0.006304
    11   Atom        0.007124     -0.000820     -0.006305
    12   Atom       -0.001353      0.004548     -0.003195
 --------------------------------------------------------
                        XY            XZ            YZ
 --------------------------------------------------------
     1   Atom       -0.000031     -0.000000      0.000000
     2   Atom       -0.000062     -0.000000      0.000000
     3   Atom       -0.011847     -0.000000      0.000000
     4   Atom        0.011850     -0.000000     -0.000000
     5   Atom        0.000062     -0.000000     -0.000000
     6   Atom        0.000031     -0.000000     -0.000000
     7   Atom       -0.016136      0.000000     -0.000000
     8   Atom        0.016133      0.000000      0.000000
     9   Atom       -0.000312      0.000000      0.000000
    10   Atom       -0.006269      0.000000     -0.000000
    11   Atom        0.006269      0.000000      0.000000
    12   Atom        0.000312      0.000000     -0.000000
 --------------------------------------------------------


 ---------------------------------------------------------------------------------
              Anisotropic Spin Dipole Couplings in Principal Axis System
 ---------------------------------------------------------------------------------

       Atom             a.u.   MegaHertz   Gauss  10(-4) cm-1        Axes

              Baa    -0.0011    -0.145    -0.052    -0.048  0.0190  0.9998 -0.0000
     1 C(13)  Bbb     0.0005     0.069     0.025     0.023  0.0000  0.0000  1.0000
              Bcc     0.0006     0.076     0.027     0.025  0.9998 -0.0190  0.0000
 
              Baa    -0.0040    -0.539    -0.192    -0.180  1.0000  0.0054  0.0000
     2 C(13)  Bbb    -0.0035    -0.465    -0.166    -0.155  0.0000  0.0000  1.0000
              Bcc     0.0075     1.004     0.358     0.335 -0.0054  1.0000 -0.0000
 
              Baa    -0.0095    -1.274    -0.454    -0.425  0.0000  0.0000  1.0000
     3 C(13)  Bbb    -0.0081    -1.085    -0.387    -0.362  0.5552  0.8317 -0.0000
              Bcc     0.0176     2.358     0.841     0.787  0.8317 -0.5552  0.0000
 
              Baa    -0.0095    -1.274    -0.455    -0.425  0.0000  0.0000  1.0000
     4 C(13)  Bbb    -0.0081    -1.085    -0.387    -0.362 -0.5551  0.8318  0.0000
              Bcc     0.0176     2.359     0.842     0.787  0.8318  0.5551 -0.0000
 
              Baa    -0.0040    -0.539    -0.192    -0.180  1.0000 -0.0054  0.0000
     5 C(13)  Bbb    -0.0035    -0.466    -0.166    -0.155  0.0000  0.0000  1.0000
              Bcc     0.0075     1.005     0.358     0.335  0.0054  1.0000 -0.0000
 
              Baa    -0.0011    -0.145    -0.052    -0.048 -0.0188  0.9998 -0.0000
     6 C(13)  Bbb     0.0005     0.069     0.025     0.023  0.0000  0.0000  1.0000
              Bcc     0.0006     0.076     0.027     0.025  0.9998  0.0188  0.0000
 
              Baa    -0.0116    -0.608    -0.217    -0.203  0.7670  0.6416  0.0000
     7 Cl(35) Bbb    -0.0096    -0.501    -0.179    -0.167  0.0000  0.0000  1.0000
              Bcc     0.0212     1.108     0.396     0.370 -0.6416  0.7670 -0.0000
 
              Baa    -0.0116    -0.607    -0.217    -0.203  0.7670 -0.6416 -0.0000
     8 Cl(35) Bbb    -0.0096    -0.501    -0.179    -0.167  0.0000  0.0000  1.0000
              Bcc     0.0212     1.108     0.395     0.370  0.6416  0.7670 -0.0000
 
              Baa    -0.0032    -1.704    -0.608    -0.569  0.0000  0.0000  1.0000
     9 H(1)   Bbb    -0.0014    -0.730    -0.261    -0.244  0.9986  0.0526  0.0000
              Bcc     0.0046     2.435     0.869     0.812 -0.0526  0.9986 -0.0000
 
              Baa    -0.0063    -3.364    -1.200    -1.122  0.0000  0.0000  1.0000
    10 H(1)   Bbb    -0.0043    -2.278    -0.813    -0.760  0.4821  0.8761  0.0000
              Bcc     0.0106     5.641     2.013     1.882  0.8761 -0.4821  0.0000
 
              Baa    -0.0063    -3.364    -1.200    -1.122  0.0000  0.0000  1.0000
    11 H(1)   Bbb    -0.0043    -2.278    -0.813    -0.760 -0.4821  0.8761  0.0000
              Bcc     0.0106     5.642     2.013     1.882  0.8761  0.4821 -0.0000
 
              Baa    -0.0032    -1.705    -0.608    -0.569  0.0000  0.0000  1.0000
    12 H(1)   Bbb    -0.0014    -0.731    -0.261    -0.244  0.9986 -0.0526  0.0000
              Bcc     0.0046     2.435     0.869     0.812  0.0526  0.9986 -0.0000
 

 ---------------------------------------------------------------------------------

 Calling FoFJK, ICntrl=      2127 FMM=F ISym2X=1 I1Cent= 0 IOpClX= 1 NMat=1 NMatS=1 NMatT=0.
 ***** Axes restored to original set *****
 -------------------------------------------------------------------
 Center     Atomic                   Forces (Hartrees/Bohr)
 Number     Number              X              Y              Z
 -------------------------------------------------------------------
      1        6           0.017759856   -0.030276505   -0.000000000
      2        6          -0.002665620    0.008256617    0.000000000
      3        6           0.005159324   -0.024986859   -0.000000000
      4        6           0.003812042    0.025210372   -0.000000000
      5        6          -0.002204490   -0.008445043    0.000000000
      6        6           0.016071256    0.031203144   -0.000000000
      7       17          -0.011860676   -0.007244628    0.000000000
      8       17          -0.012240313    0.006582698    0.000000000
      9        1          -0.000642706   -0.009870014    0.000000000
     10        1          -0.005920354   -0.002461082    0.000000000
     11        1          -0.006083390    0.002151670    0.000000000
     12        1          -0.001184929    0.009879631    0.000000000
 -------------------------------------------------------------------
 Cartesian Forces:  Max     0.031203144 RMS     0.011282258

 GradGradGradGradGradGradGradGradGradGradGradGradGradGradGradGradGradGrad
 Berny optimization.
 FormGI is forming the generalized inverse of G from B-inverse, IUseBI=4.
 Internal  Forces:  Max     0.026746524 RMS     0.006275794
 Search for a local minimum.
 Step number   1 out of a maximum of   64
 All quantities printed in internal units (Hartrees-Bohrs-Radians)
 Mixed Optimization -- RFO/linear search
 Second derivative matrix not updated -- first step.
 ITU=  0
     Eigenvalues ---    0.01880   0.01916   0.01966   0.01995   0.02072
     Eigenvalues ---    0.02083   0.02215   0.02219   0.02230   0.16000
     Eigenvalues ---    0.16000   0.16000   0.16000   0.22000   0.22486
     Eigenvalues ---    0.24475   0.25000   0.25000   0.33630   0.33641
     Eigenvalues ---    0.34209   0.34209   0.34286   0.34294   0.39138
     Eigenvalues ---    0.41767   0.42695   0.45658   0.47472   0.47921
 RFO step:  Lambda=-5.40152337D-03 EMin= 1.88049867D-02
 Linear search not attempted -- first point.
 Iteration  1 RMS(Cart)=  0.01805490 RMS(Int)=  0.00003289
 Iteration  2 RMS(Cart)=  0.00004896 RMS(Int)=  0.00000217
 Iteration  3 RMS(Cart)=  0.00000000 RMS(Int)=  0.00000217
 ClnCor:  largest displacement from symmetrization is 9.60D-11 for atom     7.
 Variable       Old X    -DE/DX   Delta X   Delta X   Delta X     New X
                                 (Linear)    (Quad)   (Total)
    R1        2.63949  -0.00532   0.00000  -0.01147  -0.01147   2.62802
    R2        2.69518  -0.02603   0.00000  -0.06206  -0.06206   2.63313
    R3        3.23978   0.01390   0.00000   0.03999   0.03999   3.27977
    R4        2.61574  -0.00098   0.00000  -0.00192  -0.00192   2.61382
    R5        2.07940  -0.00985   0.00000  -0.02881  -0.02881   2.05059
    R6        2.68961  -0.02675   0.00000  -0.06272  -0.06272   2.62688
    R7        2.06837  -0.00634   0.00000  -0.01821  -0.01821   2.05016
    R8        2.61575  -0.00099   0.00000  -0.00193  -0.00193   2.61382
    R9        2.06849  -0.00638   0.00000  -0.01833  -0.01833   2.05016
   R10        2.63949  -0.00532   0.00000  -0.01147  -0.01147   2.62802
   R11        2.07958  -0.00991   0.00000  -0.02899  -0.02899   2.05059
   R12        3.23978   0.01390   0.00000   0.03999   0.03999   3.27977
    A1        2.08463   0.00086   0.00000   0.00297   0.00297   2.08760
    A2        2.08676   0.00003   0.00000   0.00029   0.00029   2.08705
    A3        2.11180  -0.00088   0.00000  -0.00326  -0.00326   2.10854
    A4        2.10756  -0.00094   0.00000  -0.00405  -0.00405   2.10351
    A5        2.08260  -0.00050   0.00000  -0.00384  -0.00384   2.07876
    A6        2.09302   0.00144   0.00000   0.00789   0.00789   2.10092
    A7        2.09099   0.00009   0.00000   0.00108   0.00108   2.09207
    A8        2.10746  -0.00102   0.00000  -0.00643  -0.00643   2.10103
    A9        2.08474   0.00093   0.00000   0.00535   0.00535   2.09009
   A10        2.09099   0.00009   0.00000   0.00109   0.00108   2.09207
   A11        2.08474   0.00093   0.00000   0.00535   0.00535   2.09009
   A12        2.10746  -0.00102   0.00000  -0.00643  -0.00643   2.10103
   A13        2.10756  -0.00094   0.00000  -0.00404  -0.00404   2.10352
   A14        2.09302   0.00144   0.00000   0.00789   0.00789   2.10091
   A15        2.08260  -0.00050   0.00000  -0.00384  -0.00384   2.07876
   A16        2.08463   0.00085   0.00000   0.00296   0.00297   2.08760
   A17        2.11179  -0.00088   0.00000  -0.00325  -0.00326   2.10854
   A18        2.08676   0.00003   0.00000   0.00029   0.00029   2.08705
    D1       -0.00000   0.00000   0.00000   0.00000   0.00000   0.00000
    D2        3.14159   0.00000   0.00000   0.00000   0.00000   3.14159
    D3        3.14159   0.00000   0.00000  -0.00000   0.00000   3.14159
    D4       -0.00000  -0.00000   0.00000  -0.00000   0.00000   0.00000
    D5       -0.00000  -0.00000   0.00000  -0.00000   0.00000   0.00000
    D6        3.14159  -0.00000   0.00000  -0.00000   0.00000   3.14159
    D7        3.14159  -0.00000   0.00000  -0.00000   0.00000   3.14159
    D8        0.00000  -0.00000   0.00000   0.00000   0.00000   0.00000
    D9        0.00000   0.00000   0.00000   0.00000  -0.00000   0.00000
   D10        3.14159  -0.00000   0.00000  -0.00000   0.00000   3.14159
   D11        3.14159   0.00000   0.00000   0.00000   0.00000   3.14159
   D12       -0.00000   0.00000   0.00000   0.00000   0.00000   0.00000
   D13       -0.00000  -0.00000   0.00000  -0.00000   0.00000   0.00000
   D14        3.14159  -0.00000   0.00000  -0.00000   0.00000   3.14159
   D15        3.14159  -0.00000   0.00000  -0.00000   0.00000   3.14159
   D16       -0.00000   0.00000   0.00000   0.00000   0.00000   0.00000
   D17       -0.00000   0.00000   0.00000   0.00000   0.00000   0.00000
   D18        3.14159   0.00000   0.00000   0.00000   0.00000   3.14159
   D19        3.14159  -0.00000   0.00000  -0.00000   0.00000   3.14159
   D20        0.00000   0.00000   0.00000   0.00000  -0.00000   0.00000
   D21        0.00000   0.00000   0.00000   0.00000  -0.00000   0.00000
   D22        3.14159  -0.00000   0.00000  -0.00000   0.00000   3.14159
   D23        3.14159   0.00000   0.00000   0.00000   0.00000   3.14159
   D24       -0.00000  -0.00000   0.00000  -0.00000   0.00000   0.00000
         Item               Value     Threshold  Converged?
 Maximum Force            0.026747     0.000450     NO 
 RMS     Force            0.006276     0.000300     NO 
 Maximum Displacement     0.058890     0.001800     NO 
 RMS     Displacement     0.018075     0.001200     NO 
 Predicted change in Energy=-2.738469D-03
 GradGradGradGradGradGradGradGradGradGradGradGradGradGradGradGradGradGrad

                          Input orientation:                          
 ---------------------------------------------------------------------
 Center     Atomic      Atomic             Coordinates (Angstroms)
 Number     Number       Type             X           Y           Z
 ---------------------------------------------------------------------
      1          6           0       -3.104413    0.196055    0.000000
      2          6           0       -1.914669    0.916145   -0.000000
      3          6           0       -0.696739    0.260542   -0.000000
      4          6           0       -0.658569   -1.129019   -0.000000
      5          6           0       -1.838669   -1.850495   -0.000000
      6          6           0       -3.066151   -1.196810    0.000000
      7         17           0       -4.531812   -2.126365    0.000000
      8         17           0       -4.618894    1.043745    0.000000
      9          1           0       -1.954061    2.000556   -0.000000
     10          1           0        0.230002    0.824598   -0.000000
     11          1           0        0.297740   -1.641350   -0.000000
     12          1           0       -1.818466   -2.935433   -0.000000
 ---------------------------------------------------------------------
                    Distance matrix (angstroms):
                    1          2          3          4          5
     1  C    0.000000
     2  C    1.390690   0.000000
     3  C    2.408537   1.383174   0.000000
     4  C    2.781722   2.400101   1.390086   0.000000
     5  C    2.406340   2.767684   2.400100   1.383171   0.000000
     6  C    1.393391   2.406344   2.781724   2.408536   1.390689
     7  Cl   2.726005   4.013266   4.517202   3.999589   2.707235
     8  Cl   1.735579   2.707234   3.999589   4.517199   4.013263
     9  H    2.139984   1.085126   2.146744   3.387115   3.852780
    10  H    3.393138   2.146624   1.084900   2.146201   3.381645
    11  H    3.866613   3.381647   2.146201   1.084900   2.146621
    12  H    3.385244   3.852779   3.387112   2.146740   1.085126
                    6          7          8          9         10
     6  C    0.000000
     7  Cl   1.735579   0.000000
     8  Cl   2.726005   3.171306   0.000000
     9  H    3.385247   4.865828   2.831399   0.000000
    10  H    3.866616   5.602058   4.853846   2.480526   0.000000
    11  H    3.393136   4.853845   5.602055   4.281832   2.466878
    12  H    2.139982   2.831402   4.865825   4.937851   4.281828
                   11         12
    11  H    0.000000
    12  H    2.480519   0.000000
 Stoichiometry    C6H4Cl2(1-,2)
 Framework group  CS[SG(C6H4Cl2)]
 Deg. of freedom    21
 Full point group                 CS      NOp   2
 Largest Abelian subgroup         CS      NOp   2
 Largest concise Abelian subgroup C1      NOp   1
                         Standard orientation:                         
 ---------------------------------------------------------------------
 Center     Atomic      Atomic             Coordinates (Angstroms)
 Number     Number       Type             X           Y           Z
 ---------------------------------------------------------------------
      1          6           0       -0.024723   -0.696695    0.000000
      2          6           0        1.184345   -1.383844    0.000000
      3          6           0        2.383814   -0.695044    0.000000
      4          6           0        2.383813    0.695041    0.000000
      5          6           0        1.184346    1.383840    0.000000
      6          6           0       -0.024723    0.696696    0.000000
      7         17           0       -1.515356    1.585654    0.000000
      8         17           0       -1.515356   -1.585652    0.000000
      9          1           0        1.174745   -2.468928    0.000000
     10          1           0        3.325694   -1.233440    0.000000
     11          1           0        3.325692    1.233439    0.000000
     12          1           0        1.174750    2.468924    0.000000
 ---------------------------------------------------------------------
 Rotational constants (GHZ):           1.9407727           1.4245289           0.8215272
 Standard basis: 6-311++G(d,p) (5D, 7F)
 There are   172 symmetry adapted cartesian basis functions of A'  symmetry.
 There are    56 symmetry adapted cartesian basis functions of A"  symmetry.
 There are   164 symmetry adapted basis functions of A'  symmetry.
 There are    56 symmetry adapted basis functions of A"  symmetry.
   220 basis functions,   358 primitive gaussians,   228 cartesian basis functions
    38 alpha electrons       37 beta electrons
       nuclear repulsion energy       470.4176887254 Hartrees.
 NAtoms=   12 NActive=   12 NUniq=   12 SFac= 1.00D+00 NAtFMM=   60 NAOKFM=F Big=F
 Integral buffers will be    131072 words long.
 Raffenetti 2 integral format.
 Two-electron integral symmetry is turned on.
 One-electron integrals computed using PRISM.
 NBasis=   220 RedAO= T EigKep=  2.04D-06  NBF=   164    56
 NBsUse=   219 1.00D-06 EigRej=  9.07D-07 NBFU=   163    56
 Initial guess from the checkpoint file:  "frequency_chks/12ClBzAnionRadical_Freq.chk"
 B after Tr=    -0.000000   -0.000000    0.000000
         Rot=    1.000000   -0.000000    0.000000    0.000001 Ang=   0.00 deg.
 Initial guess orbital symmetries:
 Alpha Orbitals:
       Occupied  (A') (A') (A') (A') (A') (A') (A') (A') (A') (A')
                 (A') (A') (A") (A") (A') (A') (A') (A') (A') (A')
                 (A') (A') (A') (A') (A') (A') (A') (A') (A") (A')
                 (A") (A') (A") (A') (A') (A") (A") (A')
       Virtual   (A') (A') (A") (A") (A') (A') (A') (A") (A') (A')
                 (A') (A") (A") (A') (A') (A") (A') (A') (A') (A")
                 (A') (A") (A') (A') (A") (A') (A') (A') (A') (A')
                 (A") (A') (A') (A") (A') (A') (A') (A') (A') (A')
                 (A') (A') (A') (A') (A') (A') (A') (A') (A") (A')
                 (A') (A') (A") (A') (A') (A') (A") (A') (A') (A")
                 (A") (A') (A') (A") (A") (A') (A") (A') (A') (A')
                 (A') (A') (A") (A') (A') (A') (A') (A') (A') (A")
                 (A") (A') (A') (A") (A') (A') (A') (A') (A") (A')
                 (A") (A') (A") (A') (A") (A') (A') (A') (A") (A')
                 (A") (A') (A') (A') (A') (A") (A") (A') (A') (A')
                 (A") (A') (A") (A') (A') (A') (A") (A") (A") (A')
                 (A') (A') (A') (A") (A') (A") (A") (A') (A') (A")
                 (A") (A') (A') (A') (A') (A') (A') (A') (A') (A")
                 (A') (A') (A') (A') (A') (A') (A") (A") (A') (A")
                 (A") (A") (A') (A') (A') (A') (A') (A') (A') (A')
                 (A') (A') (A') (A') (A') (A') (A') (A') (A') (A')
                 (A') (A') (A') (A") (A") (A') (A') (A') (A') (A')
                 (A')
 Beta  Orbitals:
       Occupied  (A') (A') (A') (A') (A') (A') (A') (A') (A') (A')
                 (A') (A') (A") (A") (A') (A') (A') (A') (A') (A')
                 (A') (A') (A') (A') (A') (A') (A') (A') (A") (A')
                 (A") (A') (A") (A') (A') (A") (A")
       Virtual   (A") (A') (A") (A') (A') (A') (A") (A') (A') (A')
                 (A") (A") (A') (A') (A') (A") (A') (A") (A') (A')
                 (A') (A") (A") (A') (A') (A') (A') (A") (A') (A')
                 (A') (A") (A') (A') (A') (A') (A') (A') (A') (A')
                 (A') (A') (A') (A') (A') (A') (A') (A') (A") (A')
                 (A') (A') (A') (A") (A') (A') (A") (A') (A') (A')
                 (A") (A") (A') (A') (A") (A") (A') (A") (A') (A')
                 (A') (A') (A') (A") (A') (A') (A') (A') (A') (A")
                 (A") (A') (A') (A') (A") (A') (A') (A') (A') (A")
                 (A') (A") (A') (A") (A') (A") (A') (A') (A') (A")
                 (A') (A") (A') (A') (A') (A') (A") (A") (A') (A')
                 (A') (A") (A') (A") (A') (A') (A") (A') (A") (A")
                 (A') (A') (A') (A') (A") (A') (A") (A") (A') (A')
                 (A") (A") (A') (A') (A') (A') (A') (A') (A') (A')
                 (A") (A') (A') (A') (A') (A') (A') (A") (A") (A')
                 (A") (A") (A") (A') (A') (A') (A') (A') (A') (A')
                 (A') (A') (A') (A') (A') (A') (A') (A') (A') (A')
                 (A') (A') (A') (A') (A") (A") (A') (A') (A') (A')
                 (A') (A')
 Initial guess <Sx>= 0.0000 <Sy>= 0.0000 <Sz>= 0.5000 <S**2>= 0.7508 S= 0.5004
 ExpMin= 3.60D-02 ExpMax= 1.06D+05 ExpMxC= 3.62D+03 IAcc=3 IRadAn=         5 AccDes= 0.00D+00
 Harris functional with IExCor= 1009 and IRadAn=       5 diagonalized for initial guess.
 HarFok:  IExCor= 1009 AccDes= 0.00D+00 IRadAn=         5 IDoV= 1 UseB2=F ITyADJ=14
 ICtDFT=  3500011 ScaDFX=  1.000000  1.000000  1.000000  1.000000
 FoFCou: FMM=F IPFlag=           0 FMFlag=      100000 FMFlg1=           0
         NFxFlg=           0 DoJE=T BraDBF=F KetDBF=T FulRan=T
         wScrn=  0.000000 ICntrl=       500 IOpCl=  0 I1Cent=   200000004 NGrid=           0
         NMat0=    1 NMatS0=      1 NMatT0=    0 NMatD0=    1 NMtDS0=    0 NMtDT0=    0
 Petite list used in FoFCou.
 Keep R1 and R2 ints in memory in symmetry-blocked form, NReq=469802474.
 Requested convergence on RMS density matrix=1.00D-08 within 128 cycles.
 Requested convergence on MAX density matrix=1.00D-06.
 Requested convergence on             energy=1.00D-06.
 No special actions if energy rises.
 SCF Done:  E(UM062X) =  -1151.37070196     A.U. after   24 cycles
            NFock= 24  Conv=0.73D-08     -V/T= 2.0024
 <Sx>= 0.0000 <Sy>= 0.0000 <Sz>= 0.5000 <S**2>= 0.7506 S= 0.5003
 <L.S>=  0.00000000000    
 Annihilation of the first spin contaminant:
 S**2 before annihilation     0.7506,   after     0.7500
 Calling FoFJK, ICntrl=      2127 FMM=F ISym2X=1 I1Cent= 0 IOpClX= 1 NMat=1 NMatS=1 NMatT=0.
 ***** Axes restored to original set *****
 -------------------------------------------------------------------
 Center     Atomic                   Forces (Hartrees/Bohr)
 Number     Number              X              Y              Z
 -------------------------------------------------------------------
      1        6           0.005741873   -0.004964521   -0.000000000
      2        6          -0.002588394    0.004741842   -0.000000000
      3        6           0.001426237   -0.003186817   -0.000000000
      4        6           0.001251030    0.003261535   -0.000000000
      5        6          -0.002325201   -0.004879088    0.000000000
      6        6           0.005460207    0.005273545   -0.000000000
      7       17          -0.003949876   -0.004007708    0.000000000
      8       17          -0.004164340    0.003784866   -0.000000000
      9        1          -0.000130923    0.000095003   -0.000000000
     10        1          -0.000329489    0.001155846   -0.000000000
     11        1          -0.000265543   -0.001172034    0.000000000
     12        1          -0.000125581   -0.000102470    0.000000000
 -------------------------------------------------------------------
 Cartesian Forces:  Max     0.005741873 RMS     0.002709554

 GradGradGradGradGradGradGradGradGradGradGradGradGradGradGradGradGradGrad
 Berny optimization.
 Using GEDIIS/GDIIS optimizer.
 FormGI is forming the generalized inverse of G from B-inverse, IUseBI=4.
 Internal  Forces:  Max     0.005482443 RMS     0.001443764
 Search for a local minimum.
 Step number   2 out of a maximum of   64
 All quantities printed in internal units (Hartrees-Bohrs-Radians)
 Mixed Optimization -- RFO/linear search
 Update second derivatives using D2CorX and points    1    2
 DE= -2.93D-03 DEPred=-2.74D-03 R= 1.07D+00
 TightC=F SS=  1.41D+00  RLast= 1.18D-01 DXNew= 5.0454D-01 3.5445D-01
 Trust test= 1.07D+00 RLast= 1.18D-01 DXMaxT set to 3.54D-01
 ITU=  1  0
 Use linear search instead of GDIIS.
     Eigenvalues ---    0.01881   0.01917   0.01966   0.01993   0.02070
     Eigenvalues ---    0.02082   0.02216   0.02220   0.02229   0.15655
     Eigenvalues ---    0.16000   0.16000   0.16022   0.21532   0.22000
     Eigenvalues ---    0.24483   0.24523   0.25000   0.29695   0.33636
     Eigenvalues ---    0.33941   0.34209   0.34290   0.34731   0.39084
     Eigenvalues ---    0.42597   0.45464   0.45635   0.47465   0.50995
 RFO step:  Lambda=-4.04118327D-04 EMin= 1.88117281D-02
 Quartic linear search produced a step of  0.06936.
 Iteration  1 RMS(Cart)=  0.00639837 RMS(Int)=  0.00001883
 Iteration  2 RMS(Cart)=  0.00003455 RMS(Int)=  0.00000239
 Iteration  3 RMS(Cart)=  0.00000000 RMS(Int)=  0.00000239
 ClnCor:  largest displacement from symmetrization is 2.57D-11 for atom     7.
 Variable       Old X    -DE/DX   Delta X   Delta X   Delta X     New X
                                 (Linear)    (Quad)   (Total)
    R1        2.62802  -0.00034  -0.00080  -0.00085  -0.00165   2.62638
    R2        2.63313   0.00081  -0.00430   0.00191  -0.00239   2.63073
    R3        3.27977   0.00548   0.00277   0.01711   0.01988   3.29965
    R4        2.61382   0.00233  -0.00013   0.00521   0.00507   2.61889
    R5        2.05059   0.00010  -0.00200   0.00032  -0.00168   2.04892
    R6        2.62688   0.00081  -0.00435   0.00214  -0.00221   2.62467
    R7        2.05016   0.00032  -0.00126   0.00100  -0.00027   2.04990
    R8        2.61382   0.00234  -0.00013   0.00522   0.00508   2.61889
    R9        2.05016   0.00032  -0.00127   0.00100  -0.00027   2.04989
   R10        2.62802  -0.00034  -0.00080  -0.00085  -0.00165   2.62638
   R11        2.05059   0.00010  -0.00201   0.00032  -0.00169   2.04890
   R12        3.27977   0.00548   0.00277   0.01711   0.01988   3.29965
    A1        2.08760   0.00124   0.00021   0.00515   0.00537   2.09297
    A2        2.08705  -0.00270   0.00002  -0.01147  -0.01145   2.07560
    A3        2.10854   0.00146  -0.00023   0.00631   0.00608   2.11462
    A4        2.10351  -0.00190  -0.00028  -0.00897  -0.00925   2.09426
    A5        2.07876   0.00082  -0.00027   0.00365   0.00339   2.08214
    A6        2.10092   0.00108   0.00055   0.00532   0.00586   2.10678
    A7        2.09207   0.00066   0.00007   0.00381   0.00388   2.09595
    A8        2.10103  -0.00152  -0.00045  -0.00979  -0.01023   2.09080
    A9        2.09009   0.00086   0.00037   0.00597   0.00635   2.09643
   A10        2.09207   0.00066   0.00007   0.00381   0.00388   2.09595
   A11        2.09009   0.00086   0.00037   0.00597   0.00635   2.09643
   A12        2.10103  -0.00152  -0.00045  -0.00978  -0.01023   2.09080
   A13        2.10352  -0.00190  -0.00028  -0.00897  -0.00925   2.09426
   A14        2.10091   0.00108   0.00055   0.00532   0.00587   2.10678
   A15        2.07876   0.00082  -0.00027   0.00365   0.00339   2.08214
   A16        2.08760   0.00124   0.00021   0.00516   0.00537   2.09297
   A17        2.10854   0.00146  -0.00023   0.00631   0.00608   2.11462
   A18        2.08705  -0.00270   0.00002  -0.01147  -0.01145   2.07560
    D1        0.00000   0.00000   0.00000   0.00000   0.00000   0.00000
    D2        3.14159   0.00000   0.00000   0.00000   0.00000   3.14159
    D3        3.14159   0.00000   0.00000   0.00000   0.00000   3.14159
    D4        0.00000   0.00000   0.00000   0.00000   0.00000   0.00000
    D5        0.00000   0.00000   0.00000  -0.00000   0.00000   0.00000
    D6        3.14159  -0.00000   0.00000  -0.00000   0.00000   3.14159
    D7        3.14159  -0.00000   0.00000  -0.00000   0.00000   3.14159
    D8        0.00000  -0.00000   0.00000  -0.00000   0.00000   0.00000
    D9        0.00000   0.00000   0.00000   0.00000   0.00000   0.00000
   D10        3.14159  -0.00000   0.00000   0.00000   0.00000   3.14159
   D11        3.14159  -0.00000   0.00000  -0.00000   0.00000   3.14159
   D12        0.00000   0.00000   0.00000   0.00000   0.00000   0.00000
   D13        0.00000  -0.00000   0.00000  -0.00000   0.00000   0.00000
   D14        3.14159  -0.00000   0.00000  -0.00000   0.00000   3.14159
   D15        3.14159  -0.00000   0.00000  -0.00000   0.00000   3.14159
   D16        0.00000   0.00000   0.00000  -0.00000   0.00000   0.00000
   D17        0.00000   0.00000   0.00000   0.00000   0.00000   0.00000
   D18        3.14159   0.00000   0.00000   0.00000   0.00000   3.14159
   D19        3.14159   0.00000   0.00000   0.00000   0.00000   3.14159
   D20        0.00000   0.00000   0.00000   0.00000   0.00000   0.00000
   D21        0.00000  -0.00000   0.00000  -0.00000   0.00000   0.00000
   D22        3.14159   0.00000   0.00000   0.00000   0.00000   3.14159
   D23        3.14159  -0.00000   0.00000  -0.00000   0.00000   3.14159
   D24        0.00000  -0.00000   0.00000   0.00000   0.00000   0.00000
         Item               Value     Threshold  Converged?
 Maximum Force            0.005482     0.000450     NO 
 RMS     Force            0.001444     0.000300     NO 
 Maximum Displacement     0.026237     0.001800     NO 
 RMS     Displacement     0.006415     0.001200     NO 
 Predicted change in Energy=-2.181325D-04
 GradGradGradGradGradGradGradGradGradGradGradGradGradGradGradGradGradGrad

                          Input orientation:                          
 ---------------------------------------------------------------------
 Center     Atomic      Atomic             Coordinates (Angstroms)
 Number     Number       Type             X           Y           Z
 ---------------------------------------------------------------------
      1          6           0       -3.099758    0.195549    0.000000
      2          6           0       -1.914640    0.921560    0.000000
      3          6           0       -0.696904    0.259952    0.000000
      4          6           0       -0.658765   -1.128440    0.000000
      5          6           0       -1.838343   -1.855903    0.000000
      6          6           0       -3.061531   -1.196050    0.000000
      7         17           0       -4.530362   -2.140190    0.000000
      8         17           0       -4.618206    1.057629    0.000000
      9          1           0       -1.956148    2.005005    0.000000
     10          1           0        0.226119    0.829804    0.000000
     11          1           0        0.294146   -1.646759    0.000000
     12          1           0       -1.820307   -2.939987    0.000000
 ---------------------------------------------------------------------
                    Distance matrix (angstroms):
                    1          2          3          4          5
     1  C    0.000000
     2  C    1.389818   0.000000
     3  C    2.403717   1.385859   0.000000
     4  C    2.776940   2.404105   1.388916   0.000000
     5  C    2.408241   2.778510   2.404105   1.385859   0.000000
     6  C    1.392124   2.408242   2.776941   2.403717   1.389818
     7  Cl   2.739034   4.026948   4.522840   4.001613   2.706989
     8  Cl   1.746101   2.706988   4.001612   4.522839   4.026948
     9  H    2.140555   1.084240   2.151954   3.391413   3.862705
    10  H    3.385814   2.142724   1.084759   2.148893   3.387480
    11  H    3.861694   3.387476   2.148889   1.084755   2.142720
    12  H    3.386529   3.862698   3.391406   2.151948   1.084234
                    6          7          8          9         10
     6  C    0.000000
     7  Cl   1.746100   0.000000
     8  Cl   2.739034   3.199026   0.000000
     9  H    3.386536   4.879470   2.825611   0.000000
    10  H    3.861700   5.607582   4.849679   2.478585   0.000000
    11  H    3.385809   4.849676   5.607577   4.289428   2.477497
    12  H    2.140549   2.825611   4.879465   4.946857   4.289426
                   11         12
    11  H    0.000000
    12  H    2.478578   0.000000
 Stoichiometry    C6H4Cl2(1-,2)
 Framework group  CS[SG(C6H4Cl2)]
 Deg. of freedom    21
 Full point group                 CS      NOp   2
 Largest Abelian subgroup         CS      NOp   2
 Largest concise Abelian subgroup C1      NOp   1
                         Standard orientation:                         
 ---------------------------------------------------------------------
 Center     Atomic      Atomic             Coordinates (Angstroms)
 Number     Number       Type             X           Y           Z
 ---------------------------------------------------------------------
      1          6           0       -0.021173   -0.696062    0.000000
      2          6           0        1.183434   -1.389255    0.000000
      3          6           0        2.382544   -0.694458    0.000000
      4          6           0        2.382544    0.694457    0.000000
      5          6           0        1.183435    1.389255    0.000000
      6          6           0       -0.021173    0.696063    0.000000
      7         17           0       -1.515376    1.599513    0.000000
      8         17           0       -1.515376   -1.599513    0.000000
      9          1           0        1.171694   -2.473432    0.000000
     10          1           0        3.320866   -1.238750    0.000000
     11          1           0        3.320863    1.238747    0.000000
     12          1           0        1.171696    2.473425    0.000000
 ---------------------------------------------------------------------
 Rotational constants (GHZ):           1.9151902           1.4256273           0.8172693
 Standard basis: 6-311++G(d,p) (5D, 7F)
 There are   172 symmetry adapted cartesian basis functions of A'  symmetry.
 There are    56 symmetry adapted cartesian basis functions of A"  symmetry.
 There are   164 symmetry adapted basis functions of A'  symmetry.
 There are    56 symmetry adapted basis functions of A"  symmetry.
   220 basis functions,   358 primitive gaussians,   228 cartesian basis functions
    38 alpha electrons       37 beta electrons
       nuclear repulsion energy       469.2791136209 Hartrees.
 NAtoms=   12 NActive=   12 NUniq=   12 SFac= 1.00D+00 NAtFMM=   60 NAOKFM=F Big=F
 Integral buffers will be    131072 words long.
 Raffenetti 2 integral format.
 Two-electron integral symmetry is turned on.
 One-electron integrals computed using PRISM.
 NBasis=   220 RedAO= T EigKep=  2.03D-06  NBF=   164    56
 NBsUse=   219 1.00D-06 EigRej=  9.17D-07 NBFU=   163    56
 Initial guess from the checkpoint file:  "frequency_chks/12ClBzAnionRadical_Freq.chk"
 B after Tr=     0.000000    0.000000   -0.000000
         Rot=    1.000000   -0.000000    0.000000   -0.000000 Ang=  -0.00 deg.
 Initial guess orbital symmetries:
 Alpha Orbitals:
       Occupied  (A') (A') (A') (A') (A') (A') (A') (A') (A') (A')
                 (A') (A') (A") (A") (A') (A') (A') (A') (A') (A')
                 (A') (A') (A') (A') (A') (A') (A') (A') (A") (A')
                 (A') (A") (A") (A') (A') (A") (A") (A')
       Virtual   (A') (A') (A") (A") (A') (A') (A') (A") (A') (A')
                 (A') (A") (A") (A') (A') (A") (A') (A') (A') (A")
                 (A') (A") (A') (A') (A") (A') (A') (A') (A') (A')
                 (A") (A') (A') (A") (A') (A') (A') (A') (A') (A')
                 (A') (A') (A') (A') (A') (A') (A') (A') (A") (A')
                 (A') (A') (A") (A') (A') (A") (A') (A') (A') (A")
                 (A") (A') (A") (A") (A') (A') (A") (A') (A') (A')
                 (A') (A') (A") (A') (A') (A') (A') (A') (A') (A")
                 (A') (A") (A') (A") (A') (A') (A') (A') (A") (A')
                 (A") (A') (A") (A') (A") (A') (A') (A") (A') (A')
                 (A") (A') (A') (A') (A') (A") (A") (A') (A') (A')
                 (A") (A') (A") (A') (A') (A') (A") (A") (A") (A')
                 (A') (A') (A') (A") (A') (A") (A") (A') (A') (A")
                 (A") (A') (A') (A') (A') (A') (A') (A') (A') (A")
                 (A') (A') (A') (A') (A') (A") (A") (A') (A') (A")
                 (A") (A") (A') (A') (A') (A') (A') (A') (A') (A')
                 (A') (A') (A') (A') (A') (A') (A') (A') (A') (A')
                 (A') (A') (A') (A") (A") (A') (A') (A') (A') (A')
                 (A')
 Beta  Orbitals:
       Occupied  (A') (A') (A') (A') (A') (A') (A') (A') (A') (A')
                 (A') (A') (A") (A") (A') (A') (A') (A') (A') (A')
                 (A') (A') (A') (A') (A') (A') (A') (A') (A") (A')
                 (A') (A") (A") (A') (A') (A") (A")
       Virtual   (A') (A") (A") (A') (A') (A') (A") (A') (A') (A')
                 (A") (A") (A') (A') (A') (A") (A') (A") (A') (A')
                 (A') (A") (A") (A') (A') (A') (A') (A") (A') (A')
                 (A') (A") (A') (A') (A') (A') (A') (A') (A') (A')
                 (A') (A') (A') (A') (A') (A') (A') (A') (A") (A')
                 (A') (A') (A') (A") (A') (A') (A") (A') (A') (A')
                 (A") (A") (A') (A") (A") (A') (A') (A") (A') (A')
                 (A') (A') (A') (A") (A') (A') (A') (A') (A') (A")
                 (A") (A') (A') (A') (A") (A') (A') (A') (A') (A")
                 (A') (A") (A') (A") (A') (A") (A') (A') (A") (A')
                 (A") (A') (A') (A') (A') (A') (A") (A") (A') (A')
                 (A') (A") (A') (A") (A') (A') (A") (A') (A") (A")
                 (A') (A') (A') (A') (A") (A') (A") (A") (A') (A')
                 (A") (A") (A') (A') (A') (A') (A') (A') (A') (A')
                 (A") (A') (A') (A') (A') (A') (A") (A") (A') (A')
                 (A") (A") (A") (A') (A') (A') (A') (A') (A') (A')
                 (A') (A') (A') (A') (A') (A') (A') (A') (A') (A')
                 (A') (A') (A') (A') (A") (A") (A') (A') (A') (A')
                 (A') (A')
 Initial guess <Sx>= 0.0000 <Sy>= 0.0000 <Sz>= 0.5000 <S**2>= 0.7506 S= 0.5003
 ExpMin= 3.60D-02 ExpMax= 1.06D+05 ExpMxC= 3.62D+03 IAcc=3 IRadAn=         5 AccDes= 0.00D+00
 Harris functional with IExCor= 1009 and IRadAn=       5 diagonalized for initial guess.
 HarFok:  IExCor= 1009 AccDes= 0.00D+00 IRadAn=         5 IDoV= 1 UseB2=F ITyADJ=14
 ICtDFT=  3500011 ScaDFX=  1.000000  1.000000  1.000000  1.000000
 FoFCou: FMM=F IPFlag=           0 FMFlag=      100000 FMFlg1=           0
         NFxFlg=           0 DoJE=T BraDBF=F KetDBF=T FulRan=T
         wScrn=  0.000000 ICntrl=       500 IOpCl=  0 I1Cent=   200000004 NGrid=           0
         NMat0=    1 NMatS0=      1 NMatT0=    0 NMatD0=    1 NMtDS0=    0 NMtDT0=    0
 Petite list used in FoFCou.
 Keep R1 and R2 ints in memory in symmetry-blocked form, NReq=469802474.
 Requested convergence on RMS density matrix=1.00D-08 within 128 cycles.
 Requested convergence on MAX density matrix=1.00D-06.
 Requested convergence on             energy=1.00D-06.
 No special actions if energy rises.
 SCF Done:  E(UM062X) =  -1151.37095301     A.U. after   22 cycles
            NFock= 22  Conv=0.88D-08     -V/T= 2.0024
 <Sx>= 0.0000 <Sy>= 0.0000 <Sz>= 0.5000 <S**2>= 0.7506 S= 0.5003
 <L.S>=  0.00000000000    
 Annihilation of the first spin contaminant:
 S**2 before annihilation     0.7506,   after     0.7500
 Calling FoFJK, ICntrl=      2127 FMM=F ISym2X=1 I1Cent= 0 IOpClX= 1 NMat=1 NMatS=1 NMatT=0.
 ***** Axes restored to original set *****
 -------------------------------------------------------------------
 Center     Atomic                   Forces (Hartrees/Bohr)
 Number     Number              X              Y              Z
 -------------------------------------------------------------------
      1        6           0.001647541   -0.001214228   -0.000000000
      2        6          -0.000914134    0.000383783   -0.000000000
      3        6           0.000167024   -0.000321970   -0.000000000
      4        6           0.000146931    0.000332266    0.000000000
      5        6          -0.000891963   -0.000429576   -0.000000000
      6        6           0.001578567    0.001303281    0.000000000
      7       17          -0.001404258   -0.000593049   -0.000000000
      8       17          -0.001434684    0.000514951   -0.000000000
      9        1           0.000134387    0.000575449    0.000000000
     10        1           0.000390042    0.000413513    0.000000000
     11        1           0.000414748   -0.000392889   -0.000000000
     12        1           0.000165799   -0.000571532   -0.000000000
 -------------------------------------------------------------------
 Cartesian Forces:  Max     0.001647541 RMS     0.000679169

 GradGradGradGradGradGradGradGradGradGradGradGradGradGradGradGradGradGrad
 Berny optimization.
 Using GEDIIS/GDIIS optimizer.
 FormGI is forming the generalized inverse of G from B-inverse, IUseBI=4.
 Internal  Forces:  Max     0.001501941 RMS     0.000425441
 Search for a local minimum.
 Step number   3 out of a maximum of   64
 All quantities printed in internal units (Hartrees-Bohrs-Radians)
 Mixed Optimization -- En-DIIS/RFO-DIIS
 Update second derivatives using D2CorX and points    1    2    3
 DE= -2.51D-04 DEPred=-2.18D-04 R= 1.15D+00
 TightC=F SS=  1.41D+00  RLast= 4.29D-02 DXNew= 5.9612D-01 1.2871D-01
 Trust test= 1.15D+00 RLast= 4.29D-02 DXMaxT set to 3.54D-01
 ITU=  1  1  0
 Use linear search instead of GDIIS.
     Eigenvalues ---    0.01880   0.01916   0.01964   0.01991   0.02068
     Eigenvalues ---    0.02081   0.02216   0.02220   0.02229   0.14783
     Eigenvalues ---    0.16000   0.16000   0.16091   0.18992   0.22000
     Eigenvalues ---    0.24486   0.25000   0.26214   0.28202   0.33636
     Eigenvalues ---    0.33955   0.34209   0.34290   0.35097   0.39409
     Eigenvalues ---    0.42631   0.45554   0.45676   0.47466   0.50183
 RFO step:  Lambda=-2.73620630D-05 EMin= 1.87960406D-02
 Quartic linear search produced a step of  0.21313.
 Iteration  1 RMS(Cart)=  0.00232981 RMS(Int)=  0.00000292
 Iteration  2 RMS(Cart)=  0.00000534 RMS(Int)=  0.00000084
 Iteration  3 RMS(Cart)=  0.00000000 RMS(Int)=  0.00000084
 ClnCor:  largest displacement from symmetrization is 7.24D-10 for atom     7.
 Variable       Old X    -DE/DX   Delta X   Delta X   Delta X     New X
                                 (Linear)    (Quad)   (Total)
    R1        2.62638   0.00001  -0.00035  -0.00003  -0.00038   2.62600
    R2        2.63073  -0.00036  -0.00051  -0.00197  -0.00248   2.62825
[...]
    R9        2.05162  -0.00001   0.00000  -0.00003  -0.00003   2.05159
   R10        2.62562  -0.00008   0.00000  -0.00027  -0.00027   2.62536
   R11        2.05054   0.00000   0.00000   0.00002   0.00002   2.05055
   R12        3.30788  -0.00001   0.00000  -0.00001  -0.00001   3.30788
    A1        2.09504   0.00001   0.00000  -0.00001  -0.00001   2.09503
    A2        2.07575   0.00004   0.00000   0.00017   0.00017   2.07593
    A3        2.11239  -0.00004   0.00000  -0.00017  -0.00017   2.11223
    A4        2.09124   0.00001   0.00000   0.00008   0.00008   2.09132
    A5        2.08535   0.00002   0.00000   0.00020   0.00020   2.08555
    A6        2.10659  -0.00003   0.00000  -0.00028  -0.00028   2.10631
    A7        2.09690  -0.00002   0.00000  -0.00007  -0.00007   2.09683
    A8        2.08894   0.00004   0.00000   0.00025   0.00025   2.08919
    A9        2.09734  -0.00002   0.00000  -0.00018  -0.00018   2.09716
   A10        2.09690  -0.00002   0.00000  -0.00007  -0.00007   2.09683
   A11        2.09734  -0.00002   0.00000  -0.00018  -0.00018   2.09716
   A12        2.08894   0.00004   0.00000   0.00025   0.00025   2.08919
   A13        2.09124   0.00001   0.00000   0.00008   0.00008   2.09132
   A14        2.10659  -0.00003   0.00000  -0.00028  -0.00028   2.10631
   A15        2.08535   0.00002   0.00000   0.00020   0.00020   2.08555
   A16        2.09504   0.00001   0.00000  -0.00001  -0.00001   2.09503
   A17        2.11239  -0.00004   0.00000  -0.00017  -0.00017   2.11223
   A18        2.07575   0.00004   0.00000   0.00017   0.00017   2.07593
    D1        0.00000  -0.00000   0.00000  -0.00000  -0.00000   0.00000
    D2        3.14159  -0.00000   0.00000  -0.00000   0.00000   3.14159
    D3        3.14159  -0.00000   0.00000  -0.00000   0.00000   3.14159
    D4        0.00000   0.00000   0.00000  -0.00000  -0.00000   0.00000
    D5       -0.00000  -0.00000   0.00000  -0.00000   0.00000   0.00000
    D6        3.14159  -0.00000   0.00000  -0.00000   0.00000   3.14159
    D7        3.14159   0.00000   0.00000  -0.00000   0.00000   3.14159
    D8        0.00000   0.00000   0.00000  -0.00000  -0.00000   0.00000
    D9       -0.00000  -0.00000   0.00000   0.00000   0.00000   0.00000
   D10        3.14159   0.00000   0.00000   0.00000   0.00000   3.14159
   D11        3.14159   0.00000   0.00000   0.00000   0.00000   3.14159
   D12       -0.00000   0.00000   0.00000   0.00000   0.00000   0.00000
   D13        0.00000  -0.00000   0.00000  -0.00000   0.00000   0.00000
   D14        3.14159   0.00000   0.00000  -0.00000   0.00000   3.14159
   D15        3.14159  -0.00000   0.00000  -0.00000   0.00000   3.14159
   D16       -0.00000  -0.00000   0.00000  -0.00000   0.00000   0.00000
   D17       -0.00000  -0.00000   0.00000  -0.00000   0.00000   0.00000
   D18        3.14159  -0.00000   0.00000  -0.00000   0.00000   3.14159
   D19        3.14159  -0.00000   0.00000  -0.00000   0.00000   3.14159
   D20        0.00000  -0.00000   0.00000   0.00000   0.00000   0.00000
   D21        0.00000   0.00000   0.00000   0.00000   0.00000   0.00000
   D22        3.14159   0.00000   0.00000   0.00000   0.00000   3.14159
   D23        3.14159  -0.00000   0.00000   0.00000   0.00000   3.14159
   D24       -0.00000   0.00000   0.00000   0.00000   0.00000   0.00000
         Item               Value     Threshold  Converged?
 Maximum Force            0.000081     0.000450     YES
 RMS     Force            0.000023     0.000300     YES
 Maximum Displacement     0.000436     0.001800     YES
 RMS     Displacement     0.000135     0.001200     YES
 Predicted change in Energy=-6.414884D-08
 Optimization completed.
    -- Stationary point found.
                           ----------------------------
                           !   Optimized Parameters   !
                           ! (Angstroms and Degrees)  !
 --------------------------                            --------------------------
 ! Name  Definition              Value          Derivative Info.                !
 --------------------------------------------------------------------------------
 ! R1    R(1,2)                  1.3894         -DE/DX =   -0.0001              !
 ! R2    R(1,6)                  1.3914         -DE/DX =    0.0                 !
 ! R3    R(1,8)                  1.7505         -DE/DX =    0.0                 !
 ! R4    R(2,3)                  1.387          -DE/DX =    0.0                 !
 ! R5    R(2,9)                  1.0851         -DE/DX =    0.0                 !
 ! R6    R(3,4)                  1.3894         -DE/DX =    0.0                 !
 ! R7    R(3,10)                 1.0857         -DE/DX =    0.0                 !
 ! R8    R(4,5)                  1.387          -DE/DX =    0.0                 !
 ! R9    R(4,11)                 1.0857         -DE/DX =    0.0                 !
 ! R10   R(5,6)                  1.3894         -DE/DX =   -0.0001              !
 ! R11   R(5,12)                 1.0851         -DE/DX =    0.0                 !
 ! R12   R(6,7)                  1.7505         -DE/DX =    0.0                 !
 ! A1    A(2,1,6)              120.0369         -DE/DX =    0.0                 !
 ! A2    A(2,1,8)              118.9319         -DE/DX =    0.0                 !
 ! A3    A(6,1,8)              121.0312         -DE/DX =    0.0                 !
 ! A4    A(1,2,3)              119.8194         -DE/DX =    0.0                 !
 ! A5    A(1,2,9)              119.4818         -DE/DX =    0.0                 !
 ! A6    A(3,2,9)              120.6988         -DE/DX =    0.0                 !
 ! A7    A(2,3,4)              120.1437         -DE/DX =    0.0                 !
 ! A8    A(2,3,10)             119.6876         -DE/DX =    0.0                 !
 ! A9    A(4,3,10)             120.1687         -DE/DX =    0.0                 !
 ! A10   A(3,4,5)              120.1437         -DE/DX =    0.0                 !
 ! A11   A(3,4,11)             120.1687         -DE/DX =    0.0                 !
 ! A12   A(5,4,11)             119.6876         -DE/DX =    0.0                 !
 ! A13   A(4,5,6)              119.8194         -DE/DX =    0.0                 !
 ! A14   A(4,5,12)             120.6988         -DE/DX =    0.0                 !
 ! A15   A(6,5,12)             119.4818         -DE/DX =    0.0                 !
 ! A16   A(1,6,5)              120.0369         -DE/DX =    0.0                 !
 ! A17   A(1,6,7)              121.0312         -DE/DX =    0.0                 !
 ! A18   A(5,6,7)              118.9319         -DE/DX =    0.0                 !
 ! D1    D(6,1,2,3)              0.0            -DE/DX =    0.0                 !
 ! D2    D(6,1,2,9)            180.0            -DE/DX =    0.0                 !
 ! D3    D(8,1,2,3)            180.0            -DE/DX =    0.0                 !
 ! D4    D(8,1,2,9)              0.0            -DE/DX =    0.0                 !
 ! D5    D(2,1,6,5)              0.0            -DE/DX =    0.0                 !
 ! D6    D(2,1,6,7)            180.0            -DE/DX =    0.0                 !
 ! D7    D(8,1,6,5)            180.0            -DE/DX =    0.0                 !
 ! D8    D(8,1,6,7)              0.0            -DE/DX =    0.0                 !
 ! D9    D(1,2,3,4)              0.0            -DE/DX =    0.0                 !
 ! D10   D(1,2,3,10)           180.0            -DE/DX =    0.0                 !
 ! D11   D(9,2,3,4)            180.0            -DE/DX =    0.0                 !
 ! D12   D(9,2,3,10)             0.0            -DE/DX =    0.0                 !
 ! D13   D(2,3,4,5)              0.0            -DE/DX =    0.0                 !
 ! D14   D(2,3,4,11)           180.0            -DE/DX =    0.0                 !
 ! D15   D(10,3,4,5)           180.0            -DE/DX =    0.0                 !
 ! D16   D(10,3,4,11)            0.0            -DE/DX =    0.0                 !
 ! D17   D(3,4,5,6)              0.0            -DE/DX =    0.0                 !
 ! D18   D(3,4,5,12)           180.0            -DE/DX =    0.0                 !
 ! D19   D(11,4,5,6)           180.0            -DE/DX =    0.0                 !
 ! D20   D(11,4,5,12)            0.0            -DE/DX =    0.0                 !
 ! D21   D(4,5,6,1)              0.0            -DE/DX =    0.0                 !
 ! D22   D(4,5,6,7)            180.0            -DE/DX =    0.0                 !
 ! D23   D(12,5,6,1)           180.0            -DE/DX =    0.0                 !
 ! D24   D(12,5,6,7)             0.0            -DE/DX =    0.0                 !
 --------------------------------------------------------------------------------
 GradGradGradGradGradGradGradGradGradGradGradGradGradGradGradGradGradGrad


 ----------------------------------------------------------------------

 Electric dipole moment (input orientation):
 (Debye = 10**-18 statcoulomb cm , SI units = C m)
                  (au)            (Debye)         (10**-30 SI)
   Tot        0.492190D+01      0.125102D+02      0.417296D+02
   x         -0.492004D+01     -0.125055D+02     -0.417139D+02
   y         -0.135154D+00     -0.343528D+00     -0.114589D+01
   z          0.000000D+00      0.000000D+00      0.000000D+00

 Dipole polarizability, Alpha (input orientation).
 (esu units = cm**3 , SI units = C**2 m**2 J**-1)
 Alpha(0;0):
               (au)            (10**-24 esu)      (10**-40 SI)
   iso        0.129660D+04      0.192136D+03      0.213780D+03
   aniso      0.254974D+04      0.377833D+03      0.420396D+03
   xx         0.693448D+03      0.102758D+03      0.114334D+03
   yx        -0.626684D+02     -0.928650D+01     -0.103326D+02
   yy         0.297305D+04      0.440561D+03      0.490190D+03
   zx         0.000000D+00      0.000000D+00      0.000000D+00
   zy        -0.380257D-04     -0.563483D-05     -0.626959D-05
   zz         0.223295D+03      0.330888D+02      0.368163D+02

 ----------------------------------------------------------------------

 Dipole orientation:
     6         -0.01454231          0.52938589          5.84197964
     6         -0.05063203          1.84316577          3.56896859
     6         -0.01448861          0.52743127          1.30233724
     6          0.05760697         -2.09707584          1.30233707
     6          0.09375039         -3.41281057          3.56896835
     6          0.05766068         -2.09903087          5.84197954
    17          0.10448600         -3.80362053          8.67646031
    17         -0.06136762          2.23397512          8.67646086
     1         -0.10693670          3.89283375          3.58883526
     1         -0.04280063          1.55807805         -0.47138874
     1          0.08591899         -3.12772259         -0.47138917
     1          0.15005507         -5.46247884          3.58883488

 Electric dipole moment (dipole orientation):
 (Debye = 10**-18 statcoulomb cm , SI units = C m)
                  (au)            (Debye)         (10**-30 SI)
   Tot        0.492190D+01      0.125102D+02      0.417296D+02
   x          0.000000D+00      0.000000D+00      0.000000D+00
   y          0.000000D+00      0.000000D+00      0.000000D+00
   z          0.492190D+01      0.125102D+02      0.417296D+02

 Dipole polarizability, Alpha (dipole orientation).
 (esu units = cm**3 , SI units = C**2 m**2 J**-1)
 Alpha(0;0):
               (au)            (10**-24 esu)      (10**-40 SI)
   iso        0.129660D+04      0.192136D+03      0.213780D+03
   aniso      0.254974D+04      0.377833D+03      0.420396D+03
   xx         0.225369D+03      0.333963D+02      0.371584D+02
   yx        -0.755266D+02     -0.111919D+02     -0.124527D+02
   yy         0.297270D+04      0.440509D+03      0.490132D+03
   zx         0.000000D+00      0.000000D+00      0.000000D+00
   zy         0.243034D-04      0.360140D-05      0.400709D-05
   zz         0.691726D+03      0.102503D+03      0.114050D+03

 ----------------------------------------------------------------------
 1\1\GINC-SH02-01N09\Freq\UM062X\6-311++G(d,p)\C6H4Cl2(1-,2)\JLAPIER\09
 -Dec-2025\0\\#N Geom=AllCheck Guess=TCheck SCRF=Check GenChk UM062X/6-
 311++G(d,p) Freq\\2-Chloro-Benzene Anion Radical (12)\\-1,2\C,-3.09797
 21962,0.1952486077,0.\C,-1.9146979797,0.9235003106,0.\C,-0.6965743546,
 0.2601802247,0.\C,-0.6584229212,-1.1286491252,0.\C,-1.8382939628,-1.85
 78425837,0.\C,-3.0597639652,-1.1956496437,0.\Cl,-4.5343620861,-2.13886
 77471,0.\Cl,-4.6221283334,1.056090275,0.\H,-1.9550021525,2.0078492096,
 0.\H,0.2267049994,0.8313491922,0.\H,0.2948207129,-1.6482697149,0.\H,-1
 .8190077607,-2.9427690053,0.\\Version=ES64L-G16RevB.01\State=2-A'\HF=-
 1151.3709749\S2=0.750611\S2-1=0.\S2A=0.75\RMSD=7.066e-09\RMSF=4.516e-0
 5\ZeroPoint=0.0812011\Thermal=0.0871441\Dipole=-4.920042,-0.1351543,0.
 \DipoleDeriv=1.2391113,-1.146055,0.,-0.4273599,-1.1760473,0.0000001,-0
 .0000001,-0.0000008,-0.4726174,-0.3670788,0.3339294,0.,-0.1085582,1.28
 34284,0.0000001,0.,0.0000002,1.2710865,0.0716512,0.0082974,0.0000001,-
 0.3360109,0.900175,0.,0.0000002,0.0000012,-0.378082,0.0561838,-0.05470
 16,-0.0000002,0.2896066,0.9156439,0.,-0.0000003,-0.0000018,-0.3780827,
 -0.3497501,-0.4237255,0.0000002,0.0187632,1.2661,0.0000002,0.,0.000000
 3,1.2710862,1.1455836,1.2737028,-0.0000002,0.5550076,-1.0825194,-0.000
 0004,0.0000001,0.0000007,-0.4726174,-0.89486,-0.0161304,0.,-0.493322,0
 .6966814,0.,0.0000001,0.0000006,-0.4080024,-0.9179898,-0.0726476,0.,0.
 4045443,0.7198111,0.,-0.0000001,-0.0000008,-0.4080034,0.02047,-0.78219
 79,0.,0.2587238,-1.0246302,0.,0.,0.0000003,0.3441925,-0.5037517,0.1416
 924,0.,0.1828718,-1.2451497,0.,0.,0.0000002,-0.8565762,-0.4881949,-0.1
 000727,0.,-0.141253,-1.2607068,0.,0.,-0.0000001,-0.8565762,-0.0113745,
 0.8379086,0.,-0.2030134,-0.9927865,0.,0.,0.,0.3441925\Polar=693.447684
 6,-62.6683897,2973.0527002,-0.0000064,-0.000038,223.2945357\Quadrupole
 =-22.8663872,5.4089587,17.4574285,-0.7773139,0.,0.\PG=CS [SG(C6H4Cl2)]
 \NImag=1\\0.53134523,0.06488014,0.61735466,0.,0.,0.11079046,-0.2558422
 5,-0.06419310,0.,0.67480728,-0.13740334,-0.19075522,0.,-0.01503451,0.7
 4375242,0.,0.,-0.06679747,0.,0.,0.14553626,-0.05917987,-0.03772791,0.,
 -0.30116012,0.12737175,0.,0.72858869,0.03045030,0.07492700,0.,0.055184
 72,-0.18236451,0.,0.03003908,0.70119616,0.,0.,0.02636863,0.,0.,-0.0735
 1722,0.,0.,0.11277279,-0.01626077,-0.03781255,0.,0.03862659,0.03136664
 ,0.,-0.13608408,0.04056197,0.,0.73179918,-0.03471986,-0.06699887,0.,0.
 08576313,-0.02099837,0.,-0.02899291,-0.34649984,0.,-0.02835639,0.69798
 542,0.,0.,-0.02206118,0.,0.,-0.00545471,0.,0.,-0.00592168,0.,0.,0.1127
 7302,0.03644172,0.09152692,0.,-0.07995517,-0.00543080,0.,0.04486749,-0
 .08214169,0.,-0.29079501,-0.06114642,0.,0.67336680,0.01956289,-0.01700
 061,0.,0.00112155,-0.00157956,0.,-0.02774520,-0.02723927,0.,-0.1333334
 3,-0.19272958,-0.00000001,0.01116458,0.74519253,0.,0.,0.00393497,0.,0.
 ,0.00846124,0.,0.,-0.00545432,0.,0.,-0.07351762,0.,0.,0.14553632,-0.10
 474712,-0.02792826,0.,0.04237017,-0.01629858,0.,-0.02038964,0.03728252
 ,0.,-0.05917461,-0.03782346,0.,-0.26669680,0.13322791,0.,0.53871744,0.
 03970138,-0.31887454,0.,-0.08826261,-0.02292907,0.,0.04037521,-0.06287
 000,-0.00000001,0.03035474,0.07492174,0.00000002,0.06001768,-0.1799006
 2,0.,-0.06920369,0.60998250,0.,0.,-0.05018069,0.,0.,0.00393516,0.,0.,-
 0.02206148,0.,0.,0.02636885,0.,0.,-0.06679730,0.,0.,0.11079021,-0.0082
 0741,-0.01274220,0.,-0.00049394,-0.00523063,0.,-0.00223014,-0.00234020
 ,0.,-0.00355686,0.00681297,0.,-0.04157276,-0.02147407,0.,-0.11025197,-
 0.04755199,0.,0.16569504,-0.02812806,-0.02188572,0.,0.00285546,-0.0075
 8022,0.,-0.00191438,-0.00039535,0.,-0.00045363,0.00001936,0.,-0.001134
 76,0.00694271,0.,-0.04470966,-0.06750358,0.,0.07816683,0.09362857,0.,0
 .,0.01271557,0.,0.,0.00203530,0.,0.,-0.01878587,0.,0.,0.02899269,0.,0.
 ,0.00156647,0.,0.,-0.03003284,0.,0.,0.00046417,-0.11518049,0.04493057,
 0.,-0.04266585,0.01874649,0.,-0.00319750,-0.00698984,0.,-0.00245782,0.
 00222680,0.,-0.00064549,0.00561192,0.,-0.01048899,0.01336881,0.,-0.003
 86696,-0.00719831,0.,0.17404737,0.04208824,-0.06257496,0.,-0.00159282,
 0.00803582,0.,0.00027677,-0.00034002,0.,0.00180098,-0.00016766,0.,-0.0
 0247417,-0.00742867,0.,0.02875467,-0.01960415,0.,0.00725339,-0.0048687
 0,0.,-0.07374520,0.08527614,0.,0.,-0.03003271,0.,0.,0.00156627,0.,0.,0
 .02899270,0.,0.,-0.01878578,0.,0.,0.00203511,0.,0.,0.01271568,0.,0.,0.
 00983356,0.,0.,0.00046421,0.00107554,-0.02701871,0.,-0.05599518,0.0130
 3376,0.,0.00416365,0.02762260,0.,-0.00412825,0.00267315,0.,-0.00173688
 ,0.00028684,0.,-0.00337515,-0.00244238,0.,-0.00001813,-0.00088365,0.,0
 .00149288,-0.00099776,0.,0.05712018,-0.00196915,-0.00901595,0.,0.00895
 972,-0.33447135,0.,0.00157883,-0.00917293,0.,0.00386533,-0.00044402,0.
 ,0.00051907,0.00026125,0.,-0.00538653,-0.00350428,0.,0.00352928,0.0024
 3179,0.,0.00477566,-0.00108737,0.,-0.01237447,0.35513594,0.,0.,0.00506
 061,0.,0.,-0.03219093,0.,0.,-0.00660670,0.,0.,0.00624473,0.,0.,0.00381
 403,0.,0.,0.00215040,0.,0.,-0.00367272,0.,0.,-0.00191369,0.,0.,0.02749
 008,-0.00443032,0.00348327,0.,-0.01829220,-0.01172587,0.,-0.25897008,-
 0.12595019,0.,0.00872002,0.00194547,0.,0.00032254,-0.00069800,0.,-0.00
 123118,-0.00011631,0.,0.00127906,0.00063563,0.,0.00147576,-0.00150449,
 0.,0.00104370,-0.00175707,0.,0.27154844,0.00067685,0.00021500,0.,0.015
 88254,0.01383149,0.,-0.12607081,-0.13547572,0.,-0.02577556,-0.01232168
 ,0.,0.00035894,-0.00518767,0.,0.00056906,-0.00229442,0.,0.00072446,0.0
 0101282,0.,0.00263448,-0.00045889,0.,-0.00098360,-0.00101603,0.,0.1336
 2050,0.13957113,0.,0.,0.01073885,0.,0.,0.00445404,0.,0.,-0.04756597,0.
 ,0.,0.00553438,0.,0.,0.00815811,0.,0.,-0.00268750,0.,0.,-0.00328699,0.
 ,0.,0.00208436,0.,0.,-0.00426768,0.,0.,0.02771672,-0.00120957,0.000175
 96,0.,0.00028734,0.00099902,0.,0.00735033,-0.00086386,0.,-0.27241253,0
 .11842104,0.,-0.01796752,0.00997749,0.,-0.00418828,-0.00372536,0.,0.00
 153187,0.00161394,0.,0.00135282,-0.00061694,0.,-0.00002750,-0.00171334
 ,0.,-0.00140383,-0.00054918,0.,0.28579963,-0.00050942,-0.00231604,0.,-
 0.00005791,-0.00515248,0.,0.02685716,-0.01095198,0.,0.11854166,-0.1220
 3307,0.,-0.01763090,0.01350682,0.,-0.00091895,-0.00002704,0.,-0.002525
 02,-0.00051500,0.,-0.00070577,0.00093907,0.,0.00107802,0.00011345,0.,0
 .00036335,0.00197611,0.,-0.12558047,0.12531973,0.,0.,-0.00268747,0.,0.
 ,0.00815807,0.,0.,0.00553438,0.,0.,-0.04756598,0.,0.,0.00445400,0.,0.,
 0.01073888,0.,0.,0.00208436,0.,0.,-0.00328699,0.,0.,0.00091105,0.,0.,-
 0.00178937,0.,0.,0.02771675,-0.00380469,0.00242586,0.,-0.00168668,-0.0
 0039394,0.,-0.00375873,-0.00285539,0.,0.00572416,-0.02680352,0.,-0.055
 62891,0.00229751,0.,-0.00054388,0.02748452,0.,0.00169219,0.00115059,0.
 ,0.00013428,0.00075733,0.,0.00038515,-0.00002734,0.,-0.00006190,-0.001
 08766,0.,0.00088726,0.00108825,0.,0.05666176,0.00537002,-0.00307474,0.
 ,-0.00062617,0.00021105,0.,-0.00404759,-0.00081353,0.,-0.00075976,-0.0
 1073344,0.,0.00637154,-0.33483732,0.,0.00243496,-0.00739654,0.,-0.0046
 2283,-0.00128668,0.,-0.00365561,0.00227939,0.,0.00000621,0.00076949,0.
 ,0.00170370,0.00014785,0.,0.00186171,-0.00085959,0.,-0.00403619,0.3555
 9406,0.,0.,0.00215043,0.,0.,0.00381399,0.,0.,0.00624475,0.,0.,-0.00660
 671,0.,0.,-0.03219101,0.,0.,0.00506064,0.,0.,-0.00191368,0.,0.,-0.0036
 7273,0.,0.,0.00298083,0.,0.,0.00091105,0.,0.,-0.00426767,0.,0.,0.02749
 012\\-0.00007024,-0.00006244,0.,0.00012205,0.00008139,0.,-0.00002712,-
 0.00006010,0.,-0.00003040,0.00005858,0.,0.00012631,-0.00007449,0.,-0.0
 0007360,0.00005850,0.,0.00000836,-0.00002377,0.,0.00000700,0.00002420,
 0.,-0.00002376,-0.00000357,0.,-0.00000812,0.00002706,0.,-0.00000657,-0
 .00002750,0.,-0.00002392,0.00000216,0.\\\@


 THERE'S SMALL CHOICE IN A BOWL OF ROTTEN APPLES.
                     SHAKESPEARE
 Job cpu time:       0 days  0 hours 37 minutes 37.0 seconds.
 Elapsed time:       0 days  0 hours  9 minutes 26.4 seconds.
 File lengths (MBytes):  RWF=    156 Int=      0 D2E=      0 Chk=     34 Scr=      1
 Normal termination of Gaussian 16 at Tue Dec  9 13:48:06 2025.
