 Entering Gaussian System, Link 0=g16
 Initial command:
 /share/software/user/restricted/gaussian/g16.B01/l1.exe "/home/users/jlapier/Chloroaromatics/Gau-25919.inp" -scrdir="/home/users/jlapier/Chloroaromatics/"
 Entering Link 1 = /share/software/user/restricted/gaussian/g16.B01/l1.exe PID=     25920.
  
 Copyright (c) 1988-2017, Gaussian, Inc.  All Rights Reserved.
  
 This is part of the Gaussian(R) 16 program.  It is based on
 the Gaussian(R) 09 system (copyright 2009, Gaussian, Inc.),
 the Gaussian(R) 03 system (copyright 2003, Gaussian, Inc.),
 the Gaussian(R) 98 system (copyright 1998, Gaussian, Inc.),
 the Gaussian(R) 94 system (copyright 1995, Gaussian, Inc.),
 the Gaussian 92(TM) system (copyright 1992, Gaussian, Inc.),
 the Gaussian 90(TM) system (copyright 1990, Gaussian, Inc.),
 the Gaussian 88(TM) system (copyright 1988, Gaussian, Inc.),
 the Gaussian 86(TM) system (copyright 1986, Carnegie Mellon
 University), and the Gaussian 82(TM) system (copyright 1983,
 Carnegie Mellon University). Gaussian is a federally registered
 trademark of Gaussian, Inc.
  
 This software contains proprietary and confidential information,
 including trade secrets, belonging to Gaussian, Inc.
  
 This software is provided under written license and may be
 used, copied, transmitted, or stored only in accord with that
 written license.
  
 The following legend is applicable only to US Government
 contracts under FAR:
  
                    RESTRICTED RIGHTS LEGEND
  
 Use, reproduction and disclosure by the US Government is
 subject to restrictions as set forth in subparagraphs (a)
 and (c) of the Commercial Computer Software - Restricted
 Rights clause in FAR 52.227-19.
  
 Gaussian, Inc.
 340 Quinnipiac St., Bldg. 40, Wallingford CT 06492
  
  
 ---------------------------------------------------------------
 Warning -- This program may not be used in any manner that
 competes with the business of Gaussian, Inc. or will provide
 assistance to any competitor of Gaussian, Inc.  The licensee
 of this program is prohibited from giving any competitor of
 Gaussian, Inc. access to this program.  By using this program,
 the user acknowledges that Gaussian, Inc. is engaged in the
 business of creating and licensing software in the field of
 computational chemistry and represents and warrants to the
 licensee that it is not a competitor of Gaussian, Inc. and that
 it will not use this program in any manner prohibited above.
 ---------------------------------------------------------------
  

 Cite this work as:
 Gaussian 16, Revision B.01,
 M. J. Frisch, G. W. Trucks, H. B. Schlegel, G. E. Scuseria, 
 M. A. Robb, J. R. Cheeseman, G. Scalmani, V. Barone, 
 G. A. Petersson, H. Nakatsuji, X. Li, M. Caricato, A. V. Marenich, 
 J. Bloino, B. G. Janesko, R. Gomperts, B. Mennucci, H. P. Hratchian, 
 J. V. Ortiz, A. F. Izmaylov, J. L. Sonnenberg, D. Williams-Young, 
 F. Ding, F. Lipparini, F. Egidi, J. Goings, B. Peng, A. Petrone, 
 T. Henderson, D. Ranasinghe, V. G. Zakrzewski, J. Gao, N. Rega, 
 G. Zheng, W. Liang, M. Hada, M. Ehara, K. Toyota, R. Fukuda, 
 J. Hasegawa, M. Ishida, T. Nakajima, Y. Honda, O. Kitao, H. Nakai, 
 T. Vreven, K. Throssell, J. A. Montgomery, Jr., J. E. Peralta, 
 F. Ogliaro, M. J. Bearpark, J. J. Heyd, E. N. Brothers, K. N. Kudin, 
 V. N. Staroverov, T. A. Keith, R. Kobayashi, J. Normand, 
 K. Raghavachari, A. P. Rendell, J. C. Burant, S. S. Iyengar, 
 J. Tomasi, M. Cossi, J. M. Millam, M. Klene, C. Adamo, R. Cammi, 
 J. W. Ochterski, R. L. Martin, K. Morokuma, O. Farkas, 
 J. B. Foresman, and D. J. Fox, Gaussian, Inc., Wallingford CT, 2016.
 
 ******************************************
 Gaussian 16:  ES64L-G16RevB.01 20-Dec-2017
                 9-Dec-2025 
 ******************************************
 %mem=8GB
 %nprocshare=4
 Will use up to    4 processors via shared memory.
 %oldchk=geometry_chks/135ClBzAnionRadical.chk
 %chk=frequency_chks/135ClBzAnionRadical_Freq.chk
 Copying data from "geometry_chks/135ClBzAnionRadical.chk" to current chk file "frequency_chks/135ClBzAnionRadical_Freq.chk"
 IOpt=  2 FromEx=T IUOpen= 4 IOptOp= 5 NList=   0 IFRang= 0 IUIn= 4 IUOut= 2.
 -------------------------------------------------------
 # opt freq 6-311++g(d,p) guess=read geom=allcheck m062x
 -------------------------------------------------------
 1/18=20,19=15,26=3,29=7,38=1/1,3;
 2/9=110,12=2,40=1/2;
 3/5=4,6=6,7=1111,11=2,14=-4,25=1,30=1,71=1,74=-55,116=-2/1,2,3;
 4/5=1/1;
 5/5=2,38=6/2;
 6/7=2,8=2,9=2,10=2,28=1/1;
 7//1,2,3,16;
 1/18=20,19=15,26=3/3(2);
 2/9=110/2;
 99//99;
 2/9=110/2;
 3/5=4,6=6,7=1111,11=2,14=-2,25=1,30=1,71=1,74=-55/1,2,3;
 4/5=5,16=3,69=1/1;
 5/5=2,38=5/2;
 7//1,2,3,16;
 1/18=20,19=15,26=3/3(-5);
 2/9=110/2;
 6/7=2,8=2,9=2,10=2,19=2,28=1/1;
 99/9=1/99;
 Structure from the checkpoint file:  "frequency_chks/135ClBzAnionRadical_Freq.chk"
 ------------------------------------
 3-Chloro-Benzene Anion Radical (135)
 ------------------------------------
 Charge = -1 Multiplicity = 2
 Redundant internal coordinates found in file.  (old form).
 C,0,-3.2122923977,0.2010569011,0.
 C,0,-2.0111048343,0.9211538743,0.
 C,0,-0.7721935159,0.268090158,0.
 C,0,-0.7491671043,-1.1322178311,0.
 C,0,-1.934192118,-1.8786136744,0.
 C,0,-3.1584078879,-1.1984028016,0.
 Cl,0,-4.6717928389,-2.1284817418,0.
 H,0,-4.1771370771,0.7233213054,0.
 Cl,0,-2.0598853632,2.6968229165,0.
 H,0,0.1625403747,0.8425480596,0.
 Cl,0,0.8129972787,-1.9778090455,0.
 H,0,-1.9040645161,-2.9752981205,0.
 Recover connectivity data from disk.

 GradGradGradGradGradGradGradGradGradGradGradGradGradGradGradGradGradGrad
 Berny optimization.
 Initialization pass.
                           ----------------------------
                           !    Initial Parameters    !
                           ! (Angstroms and Degrees)  !
 --------------------------                            --------------------------
 ! Name  Definition              Value          Derivative Info.                !
 --------------------------------------------------------------------------------
 ! R1    R(1,2)                  1.4005         estimate D2E/DX2                !
 ! R2    R(1,6)                  1.4005         estimate D2E/DX2                !
 ! R3    R(1,8)                  1.0971         estimate D2E/DX2                !
 ! R4    R(2,3)                  1.4005         estimate D2E/DX2                !
 ! R5    R(2,9)                  1.7763         estimate D2E/DX2                !
 ! R6    R(3,4)                  1.4005         estimate D2E/DX2                !
 ! R7    R(3,10)                 1.0971         estimate D2E/DX2                !
 ! R8    R(4,5)                  1.4005         estimate D2E/DX2                !
 ! R9    R(4,11)                 1.7763         estimate D2E/DX2                !
 ! R10   R(5,6)                  1.4005         estimate D2E/DX2                !
 ! R11   R(5,12)                 1.0971         estimate D2E/DX2                !
 ! R12   R(6,7)                  1.7763         estimate D2E/DX2                !
 ! A1    A(2,1,6)              118.7371         estimate D2E/DX2                !
 ! A2    A(2,1,8)              120.6314         estimate D2E/DX2                !
 ! A3    A(6,1,8)              120.6314         estimate D2E/DX2                !
 ! A4    A(1,2,3)              121.2629         estimate D2E/DX2                !
 ! A5    A(1,2,9)              119.3685         estimate D2E/DX2                !
 ! A6    A(3,2,9)              119.3685         estimate D2E/DX2                !
 ! A7    A(2,3,4)              118.737          estimate D2E/DX2                !
 ! A8    A(2,3,10)             120.6315         estimate D2E/DX2                !
 ! A9    A(4,3,10)             120.6315         estimate D2E/DX2                !
 ! A10   A(3,4,5)              121.263          estimate D2E/DX2                !
 ! A11   A(3,4,11)             119.3685         estimate D2E/DX2                !
 ! A12   A(5,4,11)             119.3685         estimate D2E/DX2                !
 ! A13   A(4,5,6)              118.7371         estimate D2E/DX2                !
 ! A14   A(4,5,12)             120.6314         estimate D2E/DX2                !
 ! A15   A(6,5,12)             120.6315         estimate D2E/DX2                !
 ! A16   A(1,6,5)              121.2629         estimate D2E/DX2                !
 ! A17   A(1,6,7)              119.3686         estimate D2E/DX2                !
 ! A18   A(5,6,7)              119.3686         estimate D2E/DX2                !
 ! D1    D(6,1,2,3)              0.0            estimate D2E/DX2                !
 ! D2    D(6,1,2,9)            180.0            estimate D2E/DX2                !
 ! D3    D(8,1,2,3)            180.0            estimate D2E/DX2                !
 ! D4    D(8,1,2,9)              0.0            estimate D2E/DX2                !
 ! D5    D(2,1,6,5)              0.0            estimate D2E/DX2                !
 ! D6    D(2,1,6,7)            180.0            estimate D2E/DX2                !
 ! D7    D(8,1,6,5)            180.0            estimate D2E/DX2                !
 ! D8    D(8,1,6,7)              0.0            estimate D2E/DX2                !
 ! D9    D(1,2,3,4)              0.0            estimate D2E/DX2                !
 ! D10   D(1,2,3,10)           180.0            estimate D2E/DX2                !
 ! D11   D(9,2,3,4)            180.0            estimate D2E/DX2                !
 ! D12   D(9,2,3,10)             0.0            estimate D2E/DX2                !
 ! D13   D(2,3,4,5)              0.0            estimate D2E/DX2                !
 ! D14   D(2,3,4,11)           180.0            estimate D2E/DX2                !
 ! D15   D(10,3,4,5)           180.0            estimate D2E/DX2                !
 ! D16   D(10,3,4,11)            0.0            estimate D2E/DX2                !
 ! D17   D(3,4,5,6)              0.0            estimate D2E/DX2                !
 ! D18   D(3,4,5,12)           180.0            estimate D2E/DX2                !
 ! D19   D(11,4,5,6)           180.0            estimate D2E/DX2                !
 ! D20   D(11,4,5,12)            0.0            estimate D2E/DX2                !
 ! D21   D(4,5,6,1)              0.0            estimate D2E/DX2                !
 ! D22   D(4,5,6,7)            180.0            estimate D2E/DX2                !
 ! D23   D(12,5,6,1)           180.0            estimate D2E/DX2                !
 ! D24   D(12,5,6,7)             0.0            estimate D2E/DX2                !
 --------------------------------------------------------------------------------
 Trust Radius=3.00D-01 FncErr=1.00D-07 GrdErr=1.00D-06 EigMax=2.50D+02 EigMin=1.00D-04
 Number of steps in this run=     64 maximum allowed number of steps=    100.
 GradGradGradGradGradGradGradGradGradGradGradGradGradGradGradGradGradGrad

                          Input orientation:                          
 ---------------------------------------------------------------------
 Center     Atomic      Atomic             Coordinates (Angstroms)
 Number     Number       Type             X           Y           Z
 ---------------------------------------------------------------------
      1          6           0       -3.212292    0.201057   -0.000000
      2          6           0       -2.011105    0.921154    0.000000
      3          6           0       -0.772194    0.268090    0.000000
      4          6           0       -0.749167   -1.132218    0.000000
      5          6           0       -1.934192   -1.878614   -0.000000
      6          6           0       -3.158408   -1.198403   -0.000000
      7         17           0       -4.671793   -2.128482   -0.000000
      8          1           0       -4.177137    0.723321   -0.000000
      9         17           0       -2.059885    2.696823    0.000000
     10          1           0        0.162540    0.842548    0.000000
     11         17           0        0.812997   -1.977809    0.000000
     12          1           0       -1.904065   -2.975298   -0.000000
 ---------------------------------------------------------------------
                    Distance matrix (angstroms):
                    1          2          3          4          5
     1  C    0.000000
     2  C    1.400497   0.000000
     3  C    2.441019   1.400498   0.000000
     4  C    2.800823   2.410150   1.400497   0.000000
     5  C    2.441018   2.800824   2.441020   1.400497   0.000000
     6  C    1.400497   2.410150   2.800825   2.410150   1.400497
     7  Cl   2.748980   4.047164   4.577164   4.047164   2.748980
     8  H    1.097126   2.175048   3.435240   3.897949   3.435239
     9  Cl   2.748980   1.776339   2.748980   4.047164   4.577163
    10  H    3.435259   2.175066   1.097146   2.175066   3.435260
    11  Cl   4.577162   4.047164   2.748980   1.776340   2.748980
    12  H    3.435213   3.897922   3.435215   2.175025   1.097098
                    6          7          8          9         10
     6  C    0.000000
     7  Cl   1.776339   0.000000
     8  H    2.175048   2.894385   0.000000
     9  Cl   4.047164   5.486859   2.894385   0.000000
    10  H    3.897971   5.674310   4.341315   2.894393   0.000000
    11  Cl   4.047164   5.486859   5.674288   5.486861   2.894393
    12  H    2.175025   2.894377   4.341272   5.674261   4.341291
                   11         12
    11  Cl   0.000000
    12  H    2.894375   0.000000
 Stoichiometry    C6H3Cl3(1-,2)
 Framework group  CS[SG(C6H3Cl3)]
 Deg. of freedom    21
 Full point group                 CS      NOp   2
 Largest Abelian subgroup         CS      NOp   2
 Largest concise Abelian subgroup C1      NOp   1
                         Standard orientation:                         
 ---------------------------------------------------------------------
 Center     Atomic      Atomic             Coordinates (Angstroms)
 Number     Number       Type             X           Y           Z
 ---------------------------------------------------------------------
      1          6           0        1.220509    0.704661   -0.000000
      2          6           0        1.205075   -0.695750   -0.000000
      3          6           0       -0.000000   -1.409324   -0.000000
      4          6           0       -1.205075   -0.695750    0.000000
      5          6           0       -1.220510    0.704662    0.000000
      6          6           0       -0.000000    1.391501    0.000000
      7         17           0       -0.000000    3.167840    0.000000
      8          1           0        2.170648    1.253224   -0.000000
      9         17           0        2.743430   -1.583919   -0.000000
     10          1           0       -0.000001   -2.506470   -0.000000
     11         17           0       -2.743431   -1.583919    0.000000
     12          1           0       -2.170625    1.253210    0.000000
 ---------------------------------------------------------------------
 Rotational constants (GHZ):           0.8332971           0.8332970           0.4166485
 Standard basis: 6-311++G(d,p) (5D, 7F)
 There are   189 symmetry adapted cartesian basis functions of A'  symmetry.
 There are    63 symmetry adapted cartesian basis functions of A"  symmetry.
 There are   180 symmetry adapted basis functions of A'  symmetry.
 There are    63 symmetry adapted basis functions of A"  symmetry.
   243 basis functions,   402 primitive gaussians,   252 cartesian basis functions
    46 alpha electrons       45 beta electrons
       nuclear repulsion energy       606.3297928002 Hartrees.
 NAtoms=   12 NActive=   12 NUniq=   12 SFac= 1.00D+00 NAtFMM=   60 NAOKFM=F Big=F
 Integral buffers will be    131072 words long.
 Raffenetti 2 integral format.
 Two-electron integral symmetry is turned on.
 One-electron integrals computed using PRISM.
 NBasis=   243 RedAO= T EigKep=  1.24D-06  NBF=   180    63
 NBsUse=   243 1.00D-06 EigRej= -1.00D+00 NBFU=   180    63
 Initial guess from the checkpoint file:  "frequency_chks/135ClBzAnionRadical_Freq.chk"
 B after Tr=    -0.000000   -0.000000   -0.000000
         Rot=    1.000000    0.000000    0.000000   -0.000000 Ang=   0.00 deg.
 Initial guess orbital symmetries:
 Alpha Orbitals:
       Occupied  (A') (A') (A') (A') (A') (A') (A') (A') (A') (A')
                 (A') (A') (A') (A") (A") (A") (A') (A') (A') (A')
                 (A') (A") (A") (A") (A') (A') (A') (A") (A") (A")
                 (A') (A') (A') (A') (A') (A') (A') (A') (A') (A')
                 (A') (A') (A') (A') (A') (A')
       Virtual   (A') (A') (A') (A') (A') (A') (A') (A') (A') (A')
                 (A') (A') (A') (A') (A') (A') (A') (A') (A') (A')
                 (A') (A') (A') (A') (A') (A') (A') (A') (A') (A')
                 (A') (A') (A') (A') (A') (A') (A') (A') (A') (A')
                 (A') (A') (A') (A') (A') (A') (A') (A') (A') (A')
                 (A') (A') (A') (A') (A') (A') (A') (A') (A') (A')
                 (A') (A') (A') (A') (A') (A') (A') (A') (A') (A')
                 (A') (A') (A') (A') (A') (A') (A') (A') (A') (A')
                 (A') (A') (A') (A') (A') (A') (A') (A') (A') (A')
                 (A') (A') (A') (A') (A') (A') (A') (A') (A') (A')
                 (A') (A') (A') (A') (A') (A') (A') (A') (A') (A')
                 (A') (A') (A') (A') (A') (A') (A') (A') (A') (A')
                 (A') (A') (A') (A') (A') (A') (A') (A') (A') (A')
                 (A') (A') (A') (A') (A') (A') (A') (A') (A') (A')
                 (A') (A') (A') (A") (A") (A") (A") (A") (A") (A")
                 (A") (A") (A") (A") (A") (A") (A") (A") (A") (A")
                 (A") (A") (A") (A") (A") (A") (A") (A") (A") (A")
                 (A") (A") (A") (A") (A") (A") (A") (A") (A") (A")
                 (A") (A") (A") (A") (A") (A") (A") (A") (A") (A")
                 (A") (A") (A") (A") (A") (A") (A")
 Beta  Orbitals:
       Occupied  (A') (A') (A') (A') (A') (A') (A') (A') (A') (A')
                 (A') (A') (A') (A") (A') (A') (A") (A") (A') (A')
                 (A') (A") (A") (A") (A") (A") (A') (A') (A') (A")
                 (A') (A') (A') (A') (A') (A') (A') (A') (A') (A')
                 (A') (A') (A') (A') (A')
       Virtual   (A') (A') (A') (A') (A') (A') (A') (A') (A') (A')
                 (A') (A') (A') (A') (A') (A') (A') (A') (A') (A')
                 (A') (A') (A') (A') (A') (A') (A') (A') (A') (A')
                 (A') (A') (A') (A') (A') (A') (A') (A') (A') (A')
                 (A') (A') (A') (A') (A') (A') (A') (A') (A') (A')
                 (A') (A') (A') (A') (A') (A') (A') (A') (A') (A')
                 (A') (A') (A') (A') (A') (A') (A') (A') (A') (A')
                 (A') (A') (A') (A') (A') (A') (A') (A') (A') (A')
                 (A') (A') (A') (A') (A') (A') (A') (A') (A') (A')
                 (A') (A') (A') (A') (A') (A') (A') (A') (A') (A')
                 (A') (A') (A') (A') (A') (A') (A') (A') (A') (A')
                 (A') (A') (A') (A') (A') (A') (A') (A') (A') (A')
                 (A') (A') (A') (A') (A') (A') (A') (A') (A') (A')
                 (A') (A') (A') (A') (A') (A') (A') (A') (A') (A')
                 (A') (A') (A') (A') (A") (A") (A") (A") (A") (A")
                 (A") (A") (A") (A") (A") (A") (A") (A") (A") (A")
                 (A") (A") (A") (A") (A") (A") (A") (A") (A") (A")
                 (A") (A") (A") (A") (A") (A") (A") (A") (A") (A")
                 (A") (A") (A") (A") (A") (A") (A") (A") (A") (A")
                 (A") (A") (A") (A") (A") (A") (A") (A")
 Initial guess <Sx>= 0.0000 <Sy>= 0.0000 <Sz>= 0.5000 <S**2>= 0.7500 S= 0.5000
 Keep R1 and R2 ints in memory in symmetry-blocked form, NReq=695666862.
 Requested convergence on RMS density matrix=1.00D-08 within 128 cycles.
 Requested convergence on MAX density matrix=1.00D-06.
 Requested convergence on             energy=1.00D-06.
 No special actions if energy rises.
 SCF Done:  E(UM062X) =  -1610.96183056     A.U. after   80 cycles
            NFock= 80  Conv=0.70D-08     -V/T= 2.0023
 <Sx>= 0.0000 <Sy>= 0.0000 <Sz>= 0.5000 <S**2>= 0.7524 S= 0.5012
 <L.S>=  0.00000000000    
 Annihilation of the first spin contaminant:
 S**2 before annihilation     0.7524,   after     0.7500

 **********************************************************************

            Population analysis using the SCF Density.

 **********************************************************************

 Orbital symmetries:
 Alpha Orbitals:
       Occupied  (A') (A') (A') (A') (A') (A') (A') (A') (A') (A')
                 (A') (A') (A') (A') (A') (A") (A") (A") (A') (A')
                 (A') (A') (A') (A') (A') (A') (A') (A') (A') (A')
                 (A') (A') (A') (A') (A") (A') (A') (A") (A") (A')
                 (A') (A') (A") (A") (A") (A')
       Virtual   (A') (A') (A') (A") (A") (A') (A') (A") (A') (A')
                 (A') (A") (A") (A') (A') (A') (A') (A") (A") (A")
                 (A') (A') (A') (A') (A') (A") (A') (A') (A") (A")
                 (A') (A') (A') (A") (A') (A') (A') (A') (A') (A')
                 (A') (A') (A') (A') (A') (A') (A') (A') (A') (A')
                 (A') (A') (A') (A") (A") (A") (A') (A') (A') (A')
                 (A') (A') (A") (A') (A') (A") (A") (A") (A") (A')
                 (A') (A") (A') (A') (A') (A') (A') (A') (A") (A')
                 (A') (A') (A') (A') (A") (A") (A') (A') (A') (A")
                 (A") (A") (A') (A') (A') (A') (A') (A') (A") (A')
                 (A') (A') (A") (A") (A') (A") (A') (A') (A') (A')
                 (A') (A") (A") (A') (A') (A') (A') (A') (A") (A")
                 (A") (A') (A') (A') (A') (A") (A") (A') (A') (A")
                 (A") (A') (A') (A') (A') (A") (A') (A') (A") (A")
                 (A") (A") (A') (A') (A') (A') (A') (A') (A') (A')
                 (A') (A') (A") (A') (A') (A') (A') (A') (A") (A")
                 (A") (A") (A") (A') (A') (A') (A') (A') (A') (A')
                 (A') (A') (A') (A') (A') (A') (A') (A') (A') (A')
                 (A') (A') (A') (A') (A') (A") (A") (A") (A') (A')
                 (A') (A') (A') (A') (A') (A') (A')
 Beta  Orbitals:
       Occupied  (A') (A') (A') (A') (A') (A') (A') (A') (A') (A')
                 (A') (A') (A') (A') (A') (A") (A") (A") (A') (A')
                 (A') (A') (A') (A') (A') (A') (A') (A') (A') (A')
                 (A') (A') (A') (A') (A") (A') (A') (A") (A") (A')
                 (A') (A') (A") (A") (A")
       Virtual   (A') (A') (A') (A") (A") (A') (A') (A') (A") (A')
                 (A") (A") (A') (A') (A') (A') (A') (A') (A") (A")
                 (A") (A') (A') (A') (A') (A') (A") (A') (A') (A")
                 (A") (A') (A') (A') (A') (A") (A') (A') (A') (A')
                 (A') (A') (A') (A') (A') (A') (A') (A') (A') (A')
                 (A') (A') (A') (A') (A") (A') (A') (A") (A") (A')
                 (A') (A') (A') (A") (A') (A') (A") (A") (A") (A")
                 (A') (A') (A") (A') (A') (A') (A') (A') (A') (A")
                 (A') (A') (A') (A') (A') (A") (A") (A') (A') (A')
                 (A") (A") (A") (A') (A') (A') (A') (A') (A') (A")
                 (A') (A') (A') (A") (A") (A') (A") (A') (A') (A')
                 (A') (A') (A") (A") (A') (A') (A') (A') (A') (A")
                 (A") (A") (A') (A') (A') (A') (A") (A") (A') (A')
                 (A") (A") (A') (A') (A') (A') (A") (A') (A') (A")
                 (A") (A") (A") (A') (A') (A') (A') (A') (A') (A')
                 (A') (A') (A') (A") (A') (A') (A') (A') (A') (A")
                 (A") (A") (A") (A") (A') (A') (A') (A') (A') (A')
                 (A') (A') (A') (A') (A') (A') (A') (A') (A') (A')
                 (A') (A') (A') (A') (A') (A') (A") (A") (A") (A')
                 (A') (A') (A') (A') (A') (A') (A') (A')
 The electronic state is 2-A'.
 Alpha  occ. eigenvalues -- -102.53238-102.53237-102.53237 -10.47265 -10.47264
 Alpha  occ. eigenvalues --  -10.47263 -10.43022 -10.43022 -10.43020  -9.67470
 Alpha  occ. eigenvalues --   -9.67470  -9.67470  -7.40023  -7.40023  -7.40022
 Alpha  occ. eigenvalues --   -7.39320  -7.39320  -7.39320  -7.39299  -7.39298
 Alpha  occ. eigenvalues --   -7.39298  -0.87497  -0.82860  -0.82860  -0.76637
 Alpha  occ. eigenvalues --   -0.69458  -0.69458  -0.55087  -0.55087  -0.46537
 Alpha  occ. eigenvalues --   -0.42536  -0.39748  -0.36653  -0.36652  -0.35252
 Alpha  occ. eigenvalues --   -0.30613  -0.30612  -0.28951  -0.28951  -0.24939
 Alpha  occ. eigenvalues --   -0.24939  -0.23696  -0.23328  -0.16872  -0.16872
 Alpha  occ. eigenvalues --    0.05973
 Alpha virt. eigenvalues --    0.10834   0.12032   0.12035   0.13256   0.13257
 Alpha virt. eigenvalues --    0.14348   0.14348   0.16842   0.18117   0.19293
 Alpha virt. eigenvalues --    0.19293   0.19880   0.19882   0.20670   0.20970
 Alpha virt. eigenvalues --    0.22802   0.22803   0.23702   0.23703   0.24043
 Alpha virt. eigenvalues --    0.24225   0.24438   0.24440   0.25554   0.25555
 Alpha virt. eigenvalues --    0.27177   0.28062   0.28063   0.29807   0.29809
 Alpha virt. eigenvalues --    0.30679   0.31629   0.31630   0.32452   0.33203
 Alpha virt. eigenvalues --    0.35113   0.35557   0.35557   0.36071   0.39094
 Alpha virt. eigenvalues --    0.39269   0.39272   0.41056   0.41561   0.41562
 Alpha virt. eigenvalues --    0.43308   0.43309   0.46816   0.46817   0.48523
 Alpha virt. eigenvalues --    0.48524   0.55459   0.57123   0.59698   0.61557
 Alpha virt. eigenvalues --    0.61559   0.61912   0.61914   0.63913   0.63946
 Alpha virt. eigenvalues --    0.65652   0.65654   0.69494   0.71171   0.71171
 Alpha virt. eigenvalues --    0.74550   0.74550   0.77311   0.77311   0.78440
 Alpha virt. eigenvalues --    0.78550   0.82153   0.83551   0.83552   0.88727
 Alpha virt. eigenvalues --    0.88727   0.88850   0.93453   0.99781   1.01392
 Alpha virt. eigenvalues --    1.01392   1.02678   1.02678   1.03739   1.05360
 Alpha virt. eigenvalues --    1.05360   1.06195   1.06195   1.06653   1.06703
 Alpha virt. eigenvalues --    1.08009   1.08010   1.11827   1.11827   1.12614
 Alpha virt. eigenvalues --    1.13610   1.14624   1.14624   1.17632   1.20691
 Alpha virt. eigenvalues --    1.20692   1.25691   1.28075   1.28075   1.36531
 Alpha virt. eigenvalues --    1.38359   1.38886   1.38887   1.42099   1.42100
 Alpha virt. eigenvalues --    1.47518   1.49939   1.49939   1.63686   1.65405
 Alpha virt. eigenvalues --    1.71280   1.72217   1.72218   1.77426   1.77426
 Alpha virt. eigenvalues --    1.77447   1.85420   1.85421   1.96381   1.96382
 Alpha virt. eigenvalues --    2.06541   2.06542   2.07115   2.07116   2.11762
 Alpha virt. eigenvalues --    2.11764   2.14886   2.22945   2.22945   2.23666
 Alpha virt. eigenvalues --    2.28225   2.38962   2.38962   2.44011   2.44011
 Alpha virt. eigenvalues --    2.46384   2.46813   2.53706   2.57270   2.57271
 Alpha virt. eigenvalues --    2.63130   2.63131   2.69357   2.71117   2.71119
 Alpha virt. eigenvalues --    2.76429   2.81511   2.82775   2.88657   2.88657
 Alpha virt. eigenvalues --    2.90462   2.90462   2.94218   2.96967   2.96967
 Alpha virt. eigenvalues --    3.06112   3.06112   3.24775   3.26607   3.31166
 Alpha virt. eigenvalues --    3.39879   3.39880   3.51930   3.51931   3.69765
 Alpha virt. eigenvalues --    3.88605   3.88606   4.02348   4.25430   4.25433
 Alpha virt. eigenvalues --    4.95596  10.06944  10.12269  10.12269  23.65204
 Alpha virt. eigenvalues --   24.07028  24.07029  24.23101  24.23103  24.30276
 Alpha virt. eigenvalues --   26.06941  26.07051  26.07051  26.33845  26.33847
 Alpha virt. eigenvalues --   26.45803  26.83715  26.83719  26.91875 216.16445
 Alpha virt. eigenvalues --  216.22700 216.22700
  Beta  occ. eigenvalues -- -102.53094-102.53093-102.53093 -10.46997 -10.46996
  Beta  occ. eigenvalues --  -10.46996 -10.43049 -10.43049 -10.43046  -9.67383
  Beta  occ. eigenvalues --   -9.67382  -9.67382  -7.39740  -7.39740  -7.39739
  Beta  occ. eigenvalues --   -7.39253  -7.39253  -7.39253  -7.39235  -7.39235
  Beta  occ. eigenvalues --   -7.39235  -0.86992  -0.82067  -0.82066  -0.75951
  Beta  occ. eigenvalues --   -0.69182  -0.69182  -0.54579  -0.54579  -0.45926
  Beta  occ. eigenvalues --   -0.42313  -0.38510  -0.36013  -0.36013  -0.34908
  Beta  occ. eigenvalues --   -0.30030  -0.30030  -0.28609  -0.28609  -0.24542
  Beta  occ. eigenvalues --   -0.24542  -0.23341  -0.22977  -0.16599  -0.16599
  Beta virt. eigenvalues --    0.10958   0.12288   0.12290   0.13317   0.13317
  Beta virt. eigenvalues --    0.13889   0.14573   0.14574   0.16342   0.16973
  Beta virt. eigenvalues --    0.19624   0.19626   0.19733   0.19736   0.19738
  Beta virt. eigenvalues --    0.21860   0.22350   0.22350   0.23137   0.23138
  Beta virt. eigenvalues --    0.23257   0.24315   0.24443   0.24443   0.24714
  Beta virt. eigenvalues --    0.24716   0.26499   0.28310   0.28310   0.29381
  Beta virt. eigenvalues --    0.29382   0.30614   0.31144   0.31164   0.31167
  Beta virt. eigenvalues --    0.32461   0.35104   0.35662   0.35664   0.35981
  Beta virt. eigenvalues --    0.38891   0.38894   0.39077   0.41199   0.41436
  Beta virt. eigenvalues --    0.41437   0.43370   0.43373   0.47173   0.47173
  Beta virt. eigenvalues --    0.48598   0.48598   0.55719   0.57030   0.60038
  Beta virt. eigenvalues --    0.61544   0.61544   0.61899   0.61902   0.63782
  Beta virt. eigenvalues --    0.63899   0.65873   0.65873   0.69785   0.71217
  Beta virt. eigenvalues --    0.71217   0.74611   0.74611   0.77683   0.77684
  Beta virt. eigenvalues --    0.78719   0.79199   0.82344   0.83673   0.83674
  Beta virt. eigenvalues --    0.88619   0.88620   0.89133   0.92689   1.00078
  Beta virt. eigenvalues --    1.01436   1.01437   1.03227   1.03227   1.04077
  Beta virt. eigenvalues --    1.05680   1.05680   1.06209   1.06209   1.06905
  Beta virt. eigenvalues --    1.07007   1.08296   1.08297   1.12081   1.12081
  Beta virt. eigenvalues --    1.12785   1.13915   1.14648   1.14648   1.18064
  Beta virt. eigenvalues --    1.20878   1.20878   1.26146   1.28322   1.28322
  Beta virt. eigenvalues --    1.36835   1.38764   1.39152   1.39152   1.42179
  Beta virt. eigenvalues --    1.42179   1.47104   1.50406   1.50406   1.63878
  Beta virt. eigenvalues --    1.65667   1.71568   1.72460   1.72461   1.77748
  Beta virt. eigenvalues --    1.77782   1.77783   1.85741   1.85742   1.96784
  Beta virt. eigenvalues --    1.96784   2.06866   2.06866   2.07680   2.07681
  Beta virt. eigenvalues --    2.12067   2.12069   2.15242   2.23266   2.23267
  Beta virt. eigenvalues --    2.23724   2.28566   2.39286   2.39287   2.44349
  Beta virt. eigenvalues --    2.44349   2.46645   2.47122   2.53977   2.57697
  Beta virt. eigenvalues --    2.57697   2.63507   2.63508   2.70310   2.72058
  Beta virt. eigenvalues --    2.72059   2.76946   2.82001   2.83332   2.89111
  Beta virt. eigenvalues --    2.89112   2.90498   2.90499   2.94394   2.97515
  Beta virt. eigenvalues --    2.97515   3.06625   3.06625   3.25348   3.27268
  Beta virt. eigenvalues --    3.31703   3.40708   3.40708   3.52653   3.52653
  Beta virt. eigenvalues --    3.70362   3.89152   3.89154   4.02872   4.26063
  Beta virt. eigenvalues --    4.26066   4.96354  10.07004  10.12323  10.12323
  Beta virt. eigenvalues --   23.65358  24.07321  24.07321  24.23208  24.23210
  Beta virt. eigenvalues --   24.30473  26.07319  26.07425  26.07425  26.34255
  Beta virt. eigenvalues --   26.34257  26.46208  26.84593  26.84602  26.92769
  Beta virt. eigenvalues --  216.16659 216.22912 216.22913
          Condensed to atoms (all electrons):
               1          2          3          4          5          6
     1  C  181.577618-179.601036 116.299781-136.503564 116.323658-179.579126
     2  C -179.601036 266.783518-179.556968 173.193003-136.504461 173.191855
     3  C  116.299781-179.556968 181.519289-179.554876 116.299101-136.474091
     4  C -136.503564 173.193003-179.554876 266.778568-179.598900 173.190223
     5  C  116.323658-136.504461 116.299101-179.598900 181.577405-179.579138
     6  C -179.579126 173.191855-136.474091 173.190223-179.579138 266.750343
     7  Cl  26.140555 -20.081266  14.599963 -20.081062  26.140616 -44.996208
     8  H   10.344802 -10.926444   5.789768  -5.289831   5.790492 -10.925324
     9  Cl  26.137179 -44.990514  26.131665 -20.075589  14.598591 -20.075195
    10  H    5.793981 -10.931757  10.348067 -10.931636   5.793943  -5.292455
    11  Cl  14.598703 -20.075856  26.131599 -44.990138  26.137167 -20.075264
    12  H    5.790218  -5.289651   5.789457 -10.925766  10.344328 -10.924770
               7          8          9         10         11         12
     1  C   26.140555  10.344802  26.137179   5.793981  14.598703   5.790218
     2  C  -20.081266 -10.926444 -44.990514 -10.931757 -20.075856  -5.289651
     3  C   14.599963   5.789768  26.131665  10.348067  26.131599   5.789457
     4  C  -20.081062  -5.289831 -20.075589 -10.931636 -44.990138 -10.925766
     5  C   26.140616   5.790492  14.598591   5.793943  26.137167  10.344328
     6  C  -44.996208 -10.925324 -20.075195  -5.292455 -20.075264 -10.924770
     7  Cl  27.512194   1.855989   1.781076   0.387217   1.781077   1.855885
     8  H    1.855989   1.556934   1.855649   0.232445   0.386912   0.232299
     9  Cl   1.781076   1.855649  27.509244   1.856705   1.780697   0.386896
    10  H    0.387217   0.232445   1.856705   1.558110   1.856706   0.232434
    11  Cl   1.781077   0.386912   1.780697   1.856706  27.509249   1.855546
    12  H    1.855885   0.232299   0.386896   0.232434   1.855546   1.556807
          Atomic-Atomic Spin Densities.
               1          2          3          4          5          6
     1  C  146.045401-174.022052 123.923038-133.513106 123.928183-174.005109
     2  C -174.022052 247.881429-173.986537 172.206275-133.513859 172.204225
     3  C  123.923038-173.986537 145.984411-173.984480 123.922384-133.488063
     4  C -133.513106 172.206275-173.984480 247.876537-174.019822 172.202614
     5  C  123.928183-133.513859 123.922384-174.019822 146.044845-174.004974
     6  C -174.005109 172.204225-133.488063 172.202614-174.004974 247.855928
     7  Cl  26.025473 -20.004790  14.349027 -20.004579  26.025494 -43.867467
     8  H    9.701722 -10.800817   5.798324  -5.230278   5.798689 -10.799945
     9  Cl  26.021987 -43.860754  26.016539 -19.999239  14.347462 -19.998905
    10  H    5.802534 -10.806364   9.704922 -10.806241   5.802497  -5.233006
    11  Cl  14.347573 -19.999504  26.016482 -43.860370  26.021943 -19.998964
    12  H    5.798421  -5.230095   5.798020 -10.800126   9.701210 -10.799378
               7          8          9         10         11         12
     1  C   26.025473   9.701722  26.021987   5.802534  14.347573   5.798421
     2  C  -20.004790 -10.800817 -43.860754 -10.806364 -19.999504  -5.230095
     3  C   14.349027   5.798324  26.016539   9.704922  26.016482   5.798020
     4  C  -20.004579  -5.230278 -19.999239 -10.806241 -43.860370 -10.800126
     5  C   26.025494   5.798689  14.347462   5.802497  26.021943   9.701210
     6  C  -43.867467 -10.799945 -19.998905  -5.233006 -19.998964 -10.799378
     7  Cl   9.882793   1.855207   1.806908   0.388698   1.806908   1.855100
     8  H    1.855207   1.063065   1.854853   0.232187   0.388392   0.232036
     9  Cl   1.806908   1.854853   9.879034   1.855917   1.806527   0.388376
    10  H    0.388698   0.232187   1.855917   1.064261   1.855917   0.232176
    11  Cl   1.806908   0.388392   1.806527   1.855917   9.879042   1.854748
    12  H    1.855100   0.232036   0.388376   0.232176   1.854748   1.062930
 Mulliken charges and spin densities:
               1          2
     1  C   -1.322769   0.054063
     2  C    0.789577   0.067158
     3  C   -1.322755   0.054066
     4  C    0.789569   0.067184
     5  C   -1.322803   0.054051
     6  C    0.789152   0.066957
     7  Cl   0.103966   0.118773
     8  H    0.096309   0.093434
     9  Cl   0.103595   0.118705
    10  H    0.096241   0.093499
    11  Cl   0.103602   0.118694
    12  H    0.096317   0.093417
 Sum of Mulliken charges =  -1.00000   1.00000
 Mulliken charges and spin densities with hydrogens summed into heavy atoms:
               1          2
     1  C   -1.226460   0.147497
     2  C    0.789577   0.067158
     3  C   -1.226514   0.147565
     4  C    0.789569   0.067184
     5  C   -1.226487   0.147469
     6  C    0.789152   0.066957
     7  Cl   0.103966   0.118773
     9  Cl   0.103595   0.118705
    11  Cl   0.103602   0.118694
 Electronic spatial extent (au):  <R**2>=           2368.4145
 Charge=             -1.0000 electrons
 Dipole moment (field-independent basis, Debye):
    X=             -0.0001    Y=             -0.0001    Z=             -0.0000  Tot=              0.0001
 Quadrupole moment (field-independent basis, Debye-Ang):
   XX=           -108.7754   YY=           -108.7776   ZZ=            -80.1338
   XY=             -0.0000   XZ=              0.0000   YZ=             -0.0000
 Traceless Quadrupole moment (field-independent basis, Debye-Ang):
   XX=             -9.5465   YY=             -9.5487   ZZ=             19.0951
   XY=             -0.0000   XZ=              0.0000   YZ=             -0.0000
 Octapole moment (field-independent basis, Debye-Ang**2):
  XXX=             -0.0012  YYY=            -62.1195  ZZZ=             -0.0000  XYY=             -0.0004
  XXY=             62.1093  XXZ=             -0.0000  XZZ=             -0.0001  YZZ=              0.0005
  YYZ=             -0.0000  XYZ=             -0.0000
 Hexadecapole moment (field-independent basis, Debye-Ang**3):
 XXXX=          -2011.6567 YYYY=          -2011.7516 ZZZZ=           -103.3907 XXXY=             -0.0004
 XXXZ=              0.0000 YYYX=              0.0003 YYYZ=             -0.0000 ZZZX=              0.0000
 ZZZY=             -0.0000 XXYY=           -670.5508 XXZZ=           -300.4835 YYZZ=           -300.4856
 XXYZ=             -0.0000 YYXZ=              0.0000 ZZXY=             -0.0002
 N-N= 6.063297928002D+02 E-N=-5.043161932584D+03  KE= 1.607293223858D+03
 Symmetry A'   KE= 1.463507423881D+03
 Symmetry A"   KE= 1.437857999772D+02
 Symmetry A'   SP= 1.000000000002D+00
 Symmetry A"   SP= 9.972074079982D-14
                          Isotropic Fermi Contact Couplings
        Atom                 a.u.       MegaHertz       Gauss      10(-4) cm-1
     1  C(13)             -0.01382     -15.53401      -5.54292      -5.18159
     2  C(13)              0.24746     278.18829      99.26450      92.79363
     3  C(13)             -0.01382     -15.53453      -5.54311      -5.18176
     4  C(13)              0.24746     278.18686      99.26399      92.79315
     5  C(13)             -0.01382     -15.53377      -5.54284      -5.18151
     6  C(13)              0.24746     278.19571      99.26715      92.79610
     7  Cl(35)             0.28446     124.72468      44.50487      41.60368
     8  H(1)               0.00612      27.34127       9.75605       9.12007
     9  Cl(35)             0.28439     124.69588      44.49459      41.59407
    10  H(1)               0.00612      27.34157       9.75615       9.12017
    11  Cl(35)             0.28439     124.69450      44.49410      41.59361
    12  H(1)               0.00612      27.33884       9.75518       9.11926
 --------------------------------------------------------
       Center         ----  Spin Dipole Couplings  ----
                      3XX-RR        3YY-RR        3ZZ-RR
 --------------------------------------------------------
     1   Atom        0.018843      0.012736     -0.031580
     2   Atom        0.042708     -0.017589     -0.025119
     3   Atom        0.009683      0.021896     -0.031578
     4   Atom        0.042706     -0.017589     -0.025118
     5   Atom        0.018842      0.012737     -0.031579
     6   Atom       -0.047733      0.072849     -0.025117
     7   Atom       -0.250862      0.496328     -0.245466
     8   Atom        0.001686      0.003221     -0.004907
     9   Atom        0.309511     -0.064043     -0.245468
    10   Atom        0.003988      0.000919     -0.004907
    11   Atom        0.309499     -0.064037     -0.245461
    12   Atom        0.001686      0.003221     -0.004907
 --------------------------------------------------------
                        XY            XZ            YZ
 --------------------------------------------------------
     1   Atom        0.005288      0.000000     -0.000000
     2   Atom       -0.052221      0.000000     -0.000000
     3   Atom       -0.000000      0.000000     -0.000000
     4   Atom        0.052219     -0.000000     -0.000000
     5   Atom       -0.005287     -0.000000     -0.000000
     6   Atom       -0.000000     -0.000000     -0.000000
     7   Atom        0.000004      0.000000     -0.000000
     8   Atom       -0.001329     -0.000000      0.000000
     9   Atom       -0.323563      0.000000     -0.000000
    10   Atom        0.000000     -0.000000      0.000000
    11   Atom        0.323556      0.000000      0.000000
    12   Atom        0.001329     -0.000000      0.000000
 --------------------------------------------------------


 ---------------------------------------------------------------------------------
              Anisotropic Spin Dipole Couplings in Principal Axis System
 ---------------------------------------------------------------------------------

       Atom             a.u.   MegaHertz   Gauss  10(-4) cm-1        Axes

              Baa    -0.0316    -4.238    -1.512    -1.414  0.0000  0.0000  1.0000
     1 C(13)  Bbb     0.0097     1.299     0.464     0.433 -0.5000  0.8660  0.0000
              Bcc     0.0219     2.938     1.048     0.980  0.8660  0.5000  0.0000
 
              Baa    -0.0477    -6.406    -2.286    -2.137  0.5000  0.8660 -0.0000
     2 C(13)  Bbb    -0.0251    -3.371    -1.203    -1.124  0.0000  0.0000  1.0000
              Bcc     0.0729     9.777     3.489     3.261  0.8660 -0.5000  0.0000
 
              Baa    -0.0316    -4.238    -1.512    -1.413  0.0000  0.0000  1.0000
     3 C(13)  Bbb     0.0097     1.299     0.464     0.433  1.0000  0.0000  0.0000
              Bcc     0.0219     2.938     1.048     0.980 -0.0000  1.0000 -0.0000
 
              Baa    -0.0477    -6.406    -2.286    -2.137 -0.5000  0.8660  0.0000
     4 C(13)  Bbb    -0.0251    -3.371    -1.203    -1.124  0.0000  0.0000  1.0000
              Bcc     0.0729     9.777     3.489     3.261  0.8660  0.5000 -0.0000
 
              Baa    -0.0316    -4.238    -1.512    -1.414  0.0000  0.0000  1.0000
     5 C(13)  Bbb     0.0097     1.300     0.464     0.433  0.5000  0.8660 -0.0000
              Bcc     0.0219     2.938     1.048     0.980  0.8660 -0.5000 -0.0000
 
              Baa    -0.0477    -6.405    -2.286    -2.137  1.0000  0.0000  0.0000
     6 C(13)  Bbb    -0.0251    -3.370    -1.203    -1.124  0.0000  0.0000  1.0000
              Bcc     0.0728     9.776     3.488     3.261 -0.0000  1.0000 -0.0000
 
              Baa    -0.2509   -13.130    -4.685    -4.380  1.0000 -0.0000  0.0000
     7 Cl(35) Bbb    -0.2455   -12.847    -4.584    -4.285  0.0000  0.0000  1.0000
              Bcc     0.4963    25.977     9.269     8.665  0.0000  1.0000 -0.0000
 
              Baa    -0.0049    -2.618    -0.934    -0.873  0.0000  0.0000  1.0000
     8 H(1)   Bbb     0.0009     0.490     0.175     0.164  0.8661  0.4999  0.0000
              Bcc     0.0040     2.128     0.759     0.710 -0.4999  0.8661 -0.0000
 
              Baa    -0.2509   -13.130    -4.685    -4.380  0.5000  0.8660  0.0000
     9 Cl(35) Bbb    -0.2455   -12.847    -4.584    -4.285  0.0000  0.0000  1.0000
              Bcc     0.4963    25.977     9.269     8.665  0.8660 -0.5000  0.0000
 
              Baa    -0.0049    -2.618    -0.934    -0.873  0.0000  0.0000  1.0000
    10 H(1)   Bbb     0.0009     0.490     0.175     0.164 -0.0000  1.0000  0.0000
              Bcc     0.0040     2.128     0.759     0.710  1.0000  0.0000  0.0000
 
              Baa    -0.2509   -13.129    -4.685    -4.380 -0.5000  0.8660  0.0000
    11 Cl(35) Bbb    -0.2455   -12.847    -4.584    -4.285  0.0000  0.0000  1.0000
              Bcc     0.4963    25.976     9.269     8.665  0.8660  0.5000 -0.0000
 
              Baa    -0.0049    -2.618    -0.934    -0.873  0.0000  0.0000  1.0000
    12 H(1)   Bbb     0.0009     0.490     0.175     0.164  0.8660 -0.5000  0.0000
              Bcc     0.0040     2.128     0.759     0.710  0.5000  0.8660 -0.0000
 

 ---------------------------------------------------------------------------------

 Calling FoFJK, ICntrl=      2127 FMM=F ISym2X=1 I1Cent= 0 IOpClX= 1 NMat=1 NMatS=1 NMatT=0.
 ***** Axes restored to original set *****
 -------------------------------------------------------------------
 Center     Atomic                   Forces (Hartrees/Bohr)
 Number     Number              X              Y              Z
 -------------------------------------------------------------------
      1        6           0.008733373   -0.004755867    0.000000000
      2        6           0.001572453   -0.055960441   -0.000000000
      3        6          -0.008483172   -0.005213197   -0.000000000
      4        6          -0.049214488    0.026680334   -0.000000000
      5        6          -0.000298771    0.009955189    0.000000000
      6        6           0.047647800    0.029283829    0.000000000
      7       17          -0.033527561   -0.020605130   -0.000000000
      8        1           0.002941748   -0.001591428    0.000000000
      9       17          -0.001086926    0.039425824    0.000000000
     10        1          -0.002876331   -0.001767700   -0.000000000
     11       17           0.034682465   -0.018777916    0.000000000
     12        1          -0.000090591    0.003326502    0.000000000
 -------------------------------------------------------------------
 Cartesian Forces:  Max     0.055960441 RMS     0.019990567

 GradGradGradGradGradGradGradGradGradGradGradGradGradGradGradGradGradGrad
 Berny optimization.
 FormGI is forming the generalized inverse of G from B-inverse, IUseBI=4.
 Internal  Forces:  Max     0.039440804 RMS     0.010573313
 Search for a local minimum.
 Step number   1 out of a maximum of   64
 All quantities printed in internal units (Hartrees-Bohrs-Radians)
 Mixed Optimization -- RFO/linear search
 Second derivative matrix not updated -- first step.
 ITU=  0
     Eigenvalues ---    0.02082   0.02082   0.02082   0.02082   0.02082
     Eigenvalues ---    0.02082   0.02082   0.02082   0.02082   0.16000
     Eigenvalues ---    0.16000   0.16000   0.23497   0.23497   0.23500
     Eigenvalues ---    0.25000   0.25000   0.25000   0.28073   0.28073
     Eigenvalues ---    0.28073   0.34000   0.34002   0.34005   0.41669
     Eigenvalues ---    0.41669   0.45538   0.45538   0.45538   0.45538
 RFO step:  Lambda=-1.85161965D-02 EMin= 2.08217553D-02
 Linear search not attempted -- first point.
 Iteration  1 RMS(Cart)=  0.02682513 RMS(Int)=  0.00001892
 Iteration  2 RMS(Cart)=  0.00001675 RMS(Int)=  0.00000001
 Iteration  3 RMS(Cart)=  0.00000000 RMS(Int)=  0.00000001
 ClnCor:  largest displacement from symmetrization is 1.73D-11 for atom     9.
 Variable       Old X    -DE/DX   Delta X   Delta X   Delta X     New X
                                 (Linear)    (Quad)   (Total)
    R1        2.64656  -0.01490   0.00000  -0.03144  -0.03144   2.61512
    R2        2.64656  -0.01492   0.00000  -0.03149  -0.03149   2.61506
    R3        2.07327  -0.00334   0.00000  -0.00933  -0.00933   2.06394
    R4        2.64656  -0.01493   0.00000  -0.03150  -0.03150   2.61506
    R5        3.35679   0.03944   0.00000   0.13180   0.13180   3.48860
    R6        2.64656  -0.01493   0.00000  -0.03150  -0.03150   2.61506
    R7        2.07331  -0.00338   0.00000  -0.00942  -0.00942   2.06389
    R8        2.64656  -0.01490   0.00000  -0.03144  -0.03144   2.61512
    R9        3.35680   0.03944   0.00000   0.13180   0.13180   3.48859
   R10        2.64656  -0.01492   0.00000  -0.03149  -0.03149   2.61507
   R11        2.07322  -0.00333   0.00000  -0.00928  -0.00928   2.06393
   R12        3.35679   0.03935   0.00000   0.13151   0.13151   3.48830
    A1        2.07235  -0.00098   0.00000  -0.00386  -0.00386   2.06850
    A2        2.10542   0.00049   0.00000   0.00192   0.00192   2.10734
    A3        2.10542   0.00049   0.00000   0.00193   0.00193   2.10735
    A4        2.11644   0.00097   0.00000   0.00382   0.00382   2.12025
    A5        2.08337  -0.00049   0.00000  -0.00193  -0.00193   2.08144
    A6        2.08337  -0.00048   0.00000  -0.00188  -0.00188   2.08149
    A7        2.07235  -0.00096   0.00000  -0.00380  -0.00380   2.06856
    A8        2.10542   0.00048   0.00000   0.00190   0.00190   2.10731
    A9        2.10542   0.00048   0.00000   0.00190   0.00190   2.10731
   A10        2.11644   0.00097   0.00000   0.00382   0.00382   2.12026
   A11        2.08337  -0.00048   0.00000  -0.00188  -0.00188   2.08149
   A12        2.08337  -0.00049   0.00000  -0.00193  -0.00193   2.08144
   A13        2.07235  -0.00098   0.00000  -0.00386  -0.00386   2.06850
   A14        2.10542   0.00049   0.00000   0.00192   0.00192   2.10734
   A15        2.10542   0.00049   0.00000   0.00193   0.00193   2.10735
   A16        2.11644   0.00098   0.00000   0.00387   0.00387   2.12031
   A17        2.08337  -0.00049   0.00000  -0.00194  -0.00194   2.08144
   A18        2.08337  -0.00049   0.00000  -0.00194  -0.00194   2.08144
    D1        0.00000  -0.00000   0.00000  -0.00000   0.00000   0.00000
    D2        3.14159  -0.00000   0.00000  -0.00000   0.00000   3.14159
    D3        3.14159  -0.00000   0.00000  -0.00000   0.00000   3.14159
    D4       -0.00000   0.00000   0.00000   0.00000   0.00000   0.00000
    D5        0.00000   0.00000   0.00000   0.00000  -0.00000   0.00000
    D6        3.14159   0.00000   0.00000   0.00000   0.00000   3.14159
    D7        3.14159  -0.00000   0.00000   0.00000   0.00000   3.14159
    D8       -0.00000  -0.00000   0.00000  -0.00000   0.00000   0.00000
    D9       -0.00000   0.00000   0.00000   0.00000   0.00000   0.00000
   D10        3.14159   0.00000   0.00000   0.00000   0.00000   3.14159
   D11        3.14159   0.00000   0.00000   0.00000   0.00000   3.14159
   D12        0.00000   0.00000   0.00000  -0.00000   0.00000   0.00000
   D13        0.00000  -0.00000   0.00000  -0.00000  -0.00000   0.00000
   D14        3.14159  -0.00000   0.00000   0.00000   0.00000   3.14159
   D15        3.14159  -0.00000   0.00000   0.00000   0.00000   3.14159
   D16       -0.00000   0.00000   0.00000   0.00000   0.00000   0.00000
   D17        0.00000   0.00000   0.00000   0.00000  -0.00000   0.00000
   D18        3.14159  -0.00000   0.00000  -0.00000   0.00000   3.14159
   D19        3.14159  -0.00000   0.00000  -0.00000   0.00000   3.14159
   D20       -0.00000  -0.00000   0.00000  -0.00000   0.00000   0.00000
   D21       -0.00000   0.00000   0.00000  -0.00000   0.00000   0.00000
   D22        3.14159   0.00000   0.00000  -0.00000   0.00000   3.14159
   D23        3.14159   0.00000   0.00000   0.00000   0.00000   3.14159
   D24        0.00000   0.00000   0.00000   0.00000  -0.00000   0.00000
         Item               Value     Threshold  Converged?
 Maximum Force            0.039441     0.000450     NO 
 RMS     Force            0.010573     0.000300     NO 
 Maximum Displacement     0.097549     0.001800     NO 
 RMS     Displacement     0.026835     0.001200     NO 
 Predicted change in Energy=-9.798542D-03
 GradGradGradGradGradGradGradGradGradGradGradGradGradGradGradGradGradGrad

                          Input orientation:                          
 ---------------------------------------------------------------------
 Center     Atomic      Atomic             Coordinates (Angstroms)
 Number     Number       Type             X           Y           Z
 ---------------------------------------------------------------------
      1          6           0       -3.198886    0.193792   -0.000000
      2          6           0       -2.010604    0.903055    0.000000
      3          6           0       -0.785216    0.260089    0.000000
      4          6           0       -0.765090   -1.123593    0.000000
      5          6           0       -1.934620   -1.863370   -0.000000
      6          6           0       -3.142965   -1.188910   -0.000000
      7         17           0       -4.715640   -2.155427   -0.000000
      8          1           0       -4.159391    0.713703   -0.000000
      9         17           0       -2.061325    2.748443    0.000000
     10          1           0        0.145272    0.831938    0.000000
     11         17           0        0.858397   -2.002406    0.000000
     12          1           0       -1.904632   -2.955145   -0.000000
 ---------------------------------------------------------------------
                    Distance matrix (angstroms):
                    1          2          3          4          5
     1  C    0.000000
     2  C    1.383860   0.000000
     3  C    2.414580   1.383828   0.000000
     4  C    2.767465   2.378783   1.383828   0.000000
     5  C    2.414598   2.767468   2.414582   1.383861   0.000000
     6  C    1.383833   2.378773   2.767414   2.378772   1.383833
     7  Cl   2.796314   4.083078   4.613344   4.083077   2.796313
     8  H    1.092189   2.157114   3.404530   3.859655   3.404543
     9  Cl   2.796478   1.846085   2.796490   4.083245   4.613553
    10  H    3.404500   2.157049   1.092163   2.157049   3.404502
    11  Cl   4.613549   4.083243   2.796489   1.846084   2.796476
    12  H    3.404541   3.859655   3.404530   2.157113   1.092187
                    6          7          8          9         10
     6  C    0.000000
     7  Cl   1.845930   0.000000
     8  H    2.157095   2.922553   0.000000
     9  Cl   4.083222   5.576139   2.922679   0.000000
    10  H    3.859577   5.705507   4.306287   2.922681   0.000000
    11  Cl   4.083219   5.576137   5.705738   5.576320   2.922679
    12  H    2.157095   2.922553   4.306320   5.705741   4.306286
                   11         12
    11  Cl   0.000000
    12  H    2.922677   0.000000
 Stoichiometry    C6H3Cl3(1-,2)
 Framework group  CS[SG(C6H3Cl3)]
 Deg. of freedom    21
 Full point group                 CS      NOp   2
 Largest Abelian subgroup         CS      NOp   2
 Largest concise Abelian subgroup C1      NOp   1
                         Standard orientation:                         
 ---------------------------------------------------------------------
 Center     Atomic      Atomic             Coordinates (Angstroms)
 Number     Number       Type             X           Y           Z
 ---------------------------------------------------------------------
      1          6           0        1.207298    0.697066    0.000000
      2          6           0        1.189391   -0.686677    0.000000
      3          6           0       -0.000000   -1.394016    0.000000
      4          6           0       -1.189391   -0.686677    0.000000
      5          6           0       -1.207300    0.697068    0.000000
      6          6           0       -0.000000    1.373398    0.000000
      7         17           0       -0.000000    3.219328    0.000000
      8          1           0        2.153160    1.243165    0.000000
      9         17           0        2.788161   -1.609698    0.000000
     10          1           0       -0.000001   -2.486179    0.000000
     11         17           0       -2.788160   -1.609696    0.000000
     12          1           0       -2.153160    1.243165    0.000000
 ---------------------------------------------------------------------
 Rotational constants (GHZ):           0.8126190           0.8125555           0.4062936
 Standard basis: 6-311++G(d,p) (5D, 7F)
 There are   189 symmetry adapted cartesian basis functions of A'  symmetry.
 There are    63 symmetry adapted cartesian basis functions of A"  symmetry.
 There are   180 symmetry adapted basis functions of A'  symmetry.
 There are    63 symmetry adapted basis functions of A"  symmetry.
   243 basis functions,   402 primitive gaussians,   252 cartesian basis functions
    46 alpha electrons       45 beta electrons
       nuclear repulsion energy       600.3459272567 Hartrees.
 NAtoms=   12 NActive=   12 NUniq=   12 SFac= 1.00D+00 NAtFMM=   60 NAOKFM=F Big=F
 Integral buffers will be    131072 words long.
 Raffenetti 2 integral format.
 Two-electron integral symmetry is turned on.
 One-electron integrals computed using PRISM.
 NBasis=   243 RedAO= T EigKep=  1.22D-06  NBF=   180    63
 NBsUse=   243 1.00D-06 EigRej= -1.00D+00 NBFU=   180    63
 Initial guess from the checkpoint file:  "frequency_chks/135ClBzAnionRadical_Freq.chk"
 B after Tr=     0.000000   -0.000000    0.000000
         Rot=    1.000000   -0.000000    0.000000    0.000000 Ang=   0.00 deg.
 Initial guess orbital symmetries:
 Alpha Orbitals:
       Occupied  (A') (A') (A') (A') (A') (A') (A') (A') (A') (A')
                 (A') (A') (A') (A') (A') (A") (A") (A") (A') (A')
                 (A') (A') (A') (A') (A') (A') (A') (A') (A') (A')
                 (A') (A') (A') (A') (A") (A') (A') (A") (A") (A')
                 (A') (A') (A") (A") (A") (A')
       Virtual   (A') (A') (A') (A") (A") (A') (A') (A") (A') (A')
                 (A') (A") (A") (A') (A') (A') (A') (A") (A") (A")
                 (A') (A') (A') (A') (A') (A") (A') (A') (A") (A")
                 (A') (A') (A') (A") (A') (A') (A') (A') (A') (A')
                 (A') (A') (A') (A') (A') (A') (A') (A') (A') (A')
                 (A') (A') (A') (A") (A") (A") (A') (A') (A') (A')
                 (A') (A') (A") (A') (A') (A") (A") (A") (A") (A')
                 (A') (A") (A') (A') (A') (A') (A') (A') (A") (A')
                 (A') (A') (A') (A') (A") (A") (A') (A') (A') (A")
                 (A") (A") (A') (A') (A') (A') (A') (A') (A") (A')
                 (A') (A') (A") (A") (A') (A") (A') (A') (A') (A')
                 (A') (A") (A") (A') (A') (A') (A') (A') (A") (A")
                 (A") (A') (A') (A') (A') (A") (A") (A') (A') (A")
                 (A") (A') (A') (A') (A') (A") (A') (A') (A") (A")
                 (A") (A") (A') (A') (A') (A') (A') (A') (A') (A')
                 (A') (A') (A") (A') (A') (A') (A') (A') (A") (A")
                 (A") (A") (A") (A') (A') (A') (A') (A') (A') (A')
                 (A') (A') (A') (A') (A') (A') (A') (A') (A') (A')
                 (A') (A') (A') (A') (A') (A") (A") (A") (A') (A')
                 (A') (A') (A') (A') (A') (A') (A')
 Beta  Orbitals:
       Occupied  (A') (A') (A') (A') (A') (A') (A') (A') (A') (A')
                 (A') (A') (A') (A') (A') (A") (A") (A") (A') (A')
                 (A') (A') (A') (A') (A') (A') (A') (A') (A') (A')
                 (A') (A') (A') (A') (A") (A') (A') (A") (A") (A')
                 (A') (A') (A") (A") (A")
       Virtual   (A') (A') (A') (A") (A") (A') (A') (A') (A") (A')
                 (A") (A") (A') (A') (A') (A') (A') (A') (A") (A")
                 (A") (A') (A') (A') (A') (A') (A") (A') (A') (A")
                 (A") (A') (A') (A') (A') (A") (A') (A') (A') (A')
                 (A') (A') (A') (A') (A') (A') (A') (A') (A') (A')
                 (A') (A') (A') (A') (A") (A') (A') (A") (A") (A')
                 (A') (A') (A') (A") (A') (A') (A") (A") (A") (A")
                 (A') (A') (A") (A') (A') (A') (A') (A') (A') (A")
                 (A') (A') (A') (A') (A') (A") (A") (A') (A') (A')
                 (A") (A") (A") (A') (A') (A') (A') (A') (A') (A")
                 (A') (A') (A') (A") (A") (A') (A") (A') (A') (A')
                 (A') (A') (A") (A") (A') (A') (A') (A') (A') (A")
                 (A") (A") (A') (A') (A') (A') (A") (A") (A') (A')
                 (A") (A") (A') (A') (A') (A') (A") (A') (A') (A")
                 (A") (A") (A") (A') (A') (A') (A') (A') (A') (A')
                 (A') (A') (A') (A") (A') (A') (A') (A') (A') (A")
                 (A") (A") (A") (A") (A') (A') (A') (A') (A') (A')
                 (A') (A') (A') (A') (A') (A') (A') (A') (A') (A')
                 (A') (A') (A') (A') (A') (A') (A") (A") (A") (A')
                 (A') (A') (A') (A') (A') (A') (A') (A')
 Initial guess <Sx>= 0.0000 <Sy>= 0.0000 <Sz>= 0.5000 <S**2>= 0.7525 S= 0.5012
 ExpMin= 3.60D-02 ExpMax= 1.06D+05 ExpMxC= 3.62D+03 IAcc=3 IRadAn=         5 AccDes= 0.00D+00
 Harris functional with IExCor= 1009 and IRadAn=       5 diagonalized for initial guess.
 HarFok:  IExCor= 1009 AccDes= 0.00D+00 IRadAn=         5 IDoV= 1 UseB2=F ITyADJ=14
 ICtDFT=  3500011 ScaDFX=  1.000000  1.000000  1.000000  1.000000
 FoFCou: FMM=F IPFlag=           0 FMFlag=      100000 FMFlg1=           0
         NFxFlg=           0 DoJE=T BraDBF=F KetDBF=T FulRan=T
         wScrn=  0.000000 ICntrl=       500 IOpCl=  0 I1Cent=   200000004 NGrid=           0
         NMat0=    1 NMatS0=      1 NMatT0=    0 NMatD0=    1 NMtDS0=    0 NMtDT0=    0
 Petite list used in FoFCou.
 Keep R1 and R2 ints in memory in symmetry-blocked form, NReq=695666862.
 Requested convergence on RMS density matrix=1.00D-08 within 128 cycles.
 Requested convergence on MAX density matrix=1.00D-06.
 Requested convergence on             energy=1.00D-06.
 No special actions if energy rises.
 SCF Done:  E(UM062X) =  -1610.97530980     A.U. after   45 cycles
            NFock= 45  Conv=0.72D-08     -V/T= 2.0023
 <Sx>= 0.0000 <Sy>= 0.0000 <Sz>= 0.5000 <S**2>= 0.7532 S= 0.5016
 <L.S>=  0.00000000000    
 Annihilation of the first spin contaminant:
 S**2 before annihilation     0.7532,   after     0.7500
 Calling FoFJK, ICntrl=      2127 FMM=F ISym2X=1 I1Cent= 0 IOpClX= 1 NMat=1 NMatS=1 NMatT=0.
 ***** Axes restored to original set *****
 -------------------------------------------------------------------
 Center     Atomic                   Forces (Hartrees/Bohr)
 Number     Number              X              Y              Z
 -------------------------------------------------------------------
      1        6          -0.006652505    0.003592901   -0.000000000
      2        6           0.000845731   -0.029777833   -0.000000000
      3        6           0.006407293    0.003937566   -0.000000000
      4        6          -0.026184520    0.014204397   -0.000000000
      5        6           0.000200651   -0.007555508   -0.000000000
      6        6           0.025272904    0.015531358   -0.000000000
      7       17          -0.017689311   -0.010871271   -0.000000000
      8        1           0.000540023   -0.000289832   -0.000000000
      9       17          -0.000580447    0.020873372   -0.000000000
     10        1          -0.000505139   -0.000310466   -0.000000000
     11       17           0.018359926   -0.009946077   -0.000000000
     12        1          -0.000014606    0.000611392   -0.000000000
 -------------------------------------------------------------------
 Cartesian Forces:  Max     0.029777833 RMS     0.010710669

 GradGradGradGradGradGradGradGradGradGradGradGradGradGradGradGradGradGrad
 Berny optimization.
 Using GEDIIS/GDIIS optimizer.
 FormGI is forming the generalized inverse of G from B-inverse, IUseBI=4.
 Internal  Forces:  Max     0.020881440 RMS     0.005187660
 Search for a local minimum.
 Step number   2 out of a maximum of   64
 All quantities printed in internal units (Hartrees-Bohrs-Radians)
 Mixed Optimization -- RFO/linear search
 Update second derivatives using D2CorX and points    1    2
 DE= -1.35D-02 DEPred=-9.80D-03 R= 1.38D+00
 TightC=F SS=  1.41D+00  RLast= 2.42D-01 DXNew= 5.0454D-01 7.2483D-01
 Trust test= 1.38D+00 RLast= 2.42D-01 DXMaxT set to 5.05D-01
 ITU=  1  0
 Use linear search instead of GDIIS.
     Eigenvalues ---    0.02082   0.02082   0.02082   0.02082   0.02082
     Eigenvalues ---    0.02082   0.02082   0.02082   0.02082   0.13256
     Eigenvalues ---    0.16000   0.16000   0.16000   0.23500   0.23500
     Eigenvalues ---    0.25000   0.25000   0.25000   0.25399   0.28073
     Eigenvalues ---    0.28073   0.34001   0.34004   0.34057   0.41592
     Eigenvalues ---    0.41592   0.45538   0.45538   0.45538   0.50849
 RFO step:  Lambda=-3.83410072D-03 EMin= 2.08217553D-02
 Quartic linear search produced a step of  0.92477.
 Iteration  1 RMS(Cart)=  0.03192417 RMS(Int)=  0.00012747
 Iteration  2 RMS(Cart)=  0.00016879 RMS(Int)=  0.00000003
 Iteration  3 RMS(Cart)=  0.00000001 RMS(Int)=  0.00000003
 ClnCor:  largest displacement from symmetrization is 2.46D-12 for atom    10.
 Variable       Old X    -DE/DX   Delta X   Delta X   Delta X     New X
                                 (Linear)    (Quad)   (Total)
    R1        2.61512  -0.00091  -0.02907   0.01934  -0.00973   2.60538
    R2        2.61506  -0.00092  -0.02912   0.01934  -0.00978   2.60528
    R3        2.06394  -0.00061  -0.00863   0.00347  -0.00515   2.05879
    R4        2.61506  -0.00093  -0.02913   0.01930  -0.00983   2.60523
    R5        3.48860   0.02088   0.12189   0.04318   0.16506   3.65366
    R6        2.61506  -0.00093  -0.02913   0.01930  -0.00983   2.60523
    R7        2.06389  -0.00059  -0.00871   0.00365  -0.00506   2.05883
    R8        2.61512  -0.00091  -0.02907   0.01934  -0.00973   2.60538
    R9        3.48859   0.02088   0.12188   0.04317   0.16506   3.65365
   R10        2.61507  -0.00092  -0.02912   0.01934  -0.00978   2.60528
   R11        2.06393  -0.00061  -0.00858   0.00345  -0.00514   2.05880
   R12        3.48830   0.02076   0.12162   0.04259   0.16421   3.65251
    A1        2.06850  -0.00400  -0.00357  -0.02926  -0.03282   2.03568
    A2        2.10734   0.00200   0.00178   0.01461   0.01638   2.12372
    A3        2.10735   0.00200   0.00179   0.01465   0.01644   2.12379
    A4        2.12025   0.00400   0.00353   0.02931   0.03284   2.15310
    A5        2.08144  -0.00201  -0.00179  -0.01473  -0.01652   2.06493
    A6        2.08149  -0.00199  -0.00174  -0.01459  -0.01633   2.06516
    A7        2.06856  -0.00400  -0.00351  -0.02933  -0.03284   2.03572
    A8        2.10731   0.00200   0.00176   0.01467   0.01642   2.12374
    A9        2.10731   0.00200   0.00176   0.01466   0.01642   2.12373
   A10        2.12026   0.00400   0.00353   0.02931   0.03284   2.15310
   A11        2.08149  -0.00199  -0.00174  -0.01459  -0.01633   2.06516
   A12        2.08144  -0.00201  -0.00179  -0.01473  -0.01651   2.06493
   A13        2.06850  -0.00400  -0.00357  -0.02925  -0.03282   2.03568
   A14        2.10734   0.00200   0.00178   0.01460   0.01638   2.12372
   A15        2.10735   0.00200   0.00179   0.01465   0.01644   2.12379
   A16        2.12031   0.00399   0.00358   0.02921   0.03280   2.15311
   A17        2.08144  -0.00200  -0.00179  -0.01461  -0.01640   2.06504
   A18        2.08144  -0.00200  -0.00179  -0.01461  -0.01640   2.06504
    D1        0.00000  -0.00000   0.00000   0.00000   0.00000   0.00000
    D2        3.14159  -0.00000   0.00000  -0.00000   0.00000   3.14159
    D3        3.14159   0.00000   0.00000   0.00000   0.00000   3.14159
    D4        0.00000  -0.00000   0.00000  -0.00000   0.00000   0.00000
    D5        0.00000  -0.00000   0.00000  -0.00000   0.00000   0.00000
    D6        3.14159   0.00000   0.00000   0.00000   0.00000   3.14159
    D7        3.14159  -0.00000   0.00000  -0.00000   0.00000   3.14159
    D8        0.00000  -0.00000   0.00000   0.00000   0.00000   0.00000
    D9        0.00000   0.00000   0.00000  -0.00000   0.00000   0.00000
   D10        3.14159  -0.00000   0.00000  -0.00000   0.00000   3.14159
   D11        3.14159   0.00000   0.00000   0.00000   0.00000   3.14159
   D12        0.00000   0.00000   0.00000   0.00000   0.00000   0.00000
   D13        0.00000  -0.00000   0.00000  -0.00000   0.00000   0.00000
   D14        3.14159  -0.00000   0.00000  -0.00000   0.00000   3.14159
   D15        3.14159   0.00000   0.00000   0.00000   0.00000   3.14159
   D16        0.00000  -0.00000   0.00000  -0.00000   0.00000   0.00000
   D17        0.00000   0.00000   0.00000   0.00000   0.00000   0.00000
   D18        3.14159  -0.00000   0.00000  -0.00000   0.00000   3.14159
   D19        3.14159   0.00000   0.00000   0.00000   0.00000   3.14159
   D20        0.00000   0.00000   0.00000   0.00000   0.00000   0.00000
   D21        0.00000   0.00000   0.00000  -0.00000   0.00000   0.00000
   D22        3.14159  -0.00000   0.00000  -0.00000   0.00000   3.14159
   D23        3.14159   0.00000   0.00000   0.00000   0.00000   3.14159
   D24        0.00000  -0.00000   0.00000  -0.00000   0.00000   0.00000
         Item               Value     Threshold  Converged?
 Maximum Force            0.020881     0.000450     NO 
 RMS     Force            0.005188     0.000300     NO 
 Maximum Displacement     0.129662     0.001800     NO 
 RMS     Displacement     0.031870     0.001200     NO 
 Predicted change in Energy=-5.455185D-03
 GradGradGradGradGradGradGradGradGradGradGradGradGradGradGradGradGradGrad

                          Input orientation:                          
 ---------------------------------------------------------------------
 Center     Atomic      Atomic             Coordinates (Angstroms)
 Number     Number       Type             X           Y           Z
 ---------------------------------------------------------------------
      1          6           0       -3.205388    0.197275    0.000000
      2          6           0       -2.010083    0.884361    0.000000
      3          6           0       -0.778947    0.263942    0.000000
      4          6           0       -0.781533   -1.114683    0.000000
      5          6           0       -1.934450   -1.870740    0.000000
      6          6           0       -3.127095   -1.179156    0.000000
      7         17           0       -4.773801   -2.191172    0.000000
      8          1           0       -4.163474    0.715926    0.000000
      9         17           0       -2.063380    2.817058    0.000000
     10          1           0        0.149260    0.834389    0.000000
     11         17           0        0.918683   -2.035232    0.000000
     12          1           0       -1.904493   -2.959797    0.000000
 ---------------------------------------------------------------------
                    Distance matrix (angstroms):
                    1          2          3          4          5
     1  C    0.000000
     2  C    1.378710   0.000000
     3  C    2.427356   1.378627   0.000000
     4  C    2.756139   2.346382   1.378627   0.000000
     5  C    2.427338   2.756139   2.427355   1.378709   0.000000
     6  C    1.378656   2.346448   2.756144   2.346448   1.378656
     7  Cl   2.857376   4.134856   4.688970   4.134855   2.857375
     8  H    1.089462   2.159969   3.414573   3.845601   3.414585
     9  Cl   2.857874   1.933432   2.858000   4.135422   4.689571
    10  H    3.414612   2.159921   1.089486   2.159920   3.414611
    11  Cl   4.689568   4.135419   2.857997   1.933428   2.857870
    12  H    3.414591   3.845607   3.414578   2.159973   1.089469
                    6          7          8          9         10
     6  C    0.000000
     7  Cl   1.932825   0.000000
     8  H    2.159957   2.970474   0.000000
     9  Cl   4.135362   5.694624   2.970716   0.000000
    10  H    3.845630   5.778455   4.314361   2.970985   0.000000
    11  Cl   4.135358   5.694619   5.779030   5.695385   2.970982
    12  H    2.159963   2.970474   4.314387   5.779039   4.314365
                   11         12
    11  Cl   0.000000
    12  H    2.970713   0.000000
 Stoichiometry    C6H3Cl3(1-,2)
 Framework group  CS[SG(C6H3Cl3)]
 Deg. of freedom    21
 Full point group                 CS      NOp   2
 Largest Abelian subgroup         CS      NOp   2
 Largest concise Abelian subgroup C1      NOp   1
                         Standard orientation:                         
 ---------------------------------------------------------------------
 Center     Atomic      Atomic             Coordinates (Angstroms)
 Number     Number       Type             X           Y           Z
 ---------------------------------------------------------------------
      1          6           0        1.213729   -0.700686    0.000000
      2          6           0        0.000000   -1.354676    0.000000
      3          6           0       -1.213627   -0.700671    0.000000
      4          6           0       -1.173170    0.677362    0.000000
      5          6           0        0.000081    1.401463    0.000000
      6          6           0        1.173278    0.677376    0.000000
      7         17           0        2.847163    1.643773    0.000000
      8          1           0        2.157206   -1.245461    0.000000
      9         17           0        0.000183   -3.288108    0.000000
     10          1           0       -2.157155   -1.245404    0.000000
     11         17           0       -2.847456    1.644271    0.000000
     12          1           0        0.000053    2.490931    0.000000
 ---------------------------------------------------------------------
 Rotational constants (GHZ):           0.7838804           0.7836376           0.3918795
 Standard basis: 6-311++G(d,p) (5D, 7F)
 There are   189 symmetry adapted cartesian basis functions of A'  symmetry.
 There are    63 symmetry adapted cartesian basis functions of A"  symmetry.
 There are   180 symmetry adapted basis functions of A'  symmetry.
 There are    63 symmetry adapted basis functions of A"  symmetry.
   243 basis functions,   402 primitive gaussians,   252 cartesian basis functions
    46 alpha electrons       45 beta electrons
       nuclear repulsion energy       590.8684718202 Hartrees.
 NAtoms=   12 NActive=   12 NUniq=   12 SFac= 1.00D+00 NAtFMM=   60 NAOKFM=F Big=F
 Integral buffers will be    131072 words long.
 Raffenetti 2 integral format.
 Two-electron integral symmetry is turned on.
 One-electron integrals computed using PRISM.
 NBasis=   243 RedAO= T EigKep=  1.33D-06  NBF=   180    63
 NBsUse=   243 1.00D-06 EigRej= -1.00D+00 NBFU=   180    63
 Initial guess from the checkpoint file:  "frequency_chks/135ClBzAnionRadical_Freq.chk"
 B after Tr=     0.000000   -0.000000   -0.000000
         Rot=    0.866023    0.000000   -0.000000    0.500004 Ang=  60.00 deg.
 Initial guess orbital symmetries:
 Alpha Orbitals:
       Occupied  (A') (A') (A') (A') (A') (A') (A') (A') (A') (A')
                 (A') (A') (A') (A') (A') (A") (A") (A") (A') (A')
                 (A') (A') (A') (A') (A') (A') (A') (A') (A') (A')
                 (A') (A') (A') (A') (A") (A') (A') (A") (A") (A')
                 (A') (A') (A") (A") (A") (A')
       Virtual   (A') (A') (A') (A") (A") (A') (A') (A") (A') (A')
                 (A') (A") (A") (A') (A') (A') (A') (A") (A") (A")
                 (A') (A') (A') (A') (A') (A") (A') (A') (A") (A")
                 (A') (A') (A') (A') (A") (A') (A') (A') (A') (A')
                 (A') (A') (A') (A') (A') (A') (A') (A') (A') (A')
                 (A') (A') (A') (A") (A') (A') (A") (A") (A') (A')
                 (A') (A') (A") (A') (A') (A") (A") (A") (A") (A')
                 (A') (A") (A') (A') (A') (A') (A') (A') (A') (A')
                 (A") (A') (A') (A') (A') (A') (A') (A") (A") (A")
                 (A") (A") (A') (A') (A') (A') (A') (A') (A") (A')
                 (A') (A') (A") (A") (A") (A') (A') (A') (A') (A')
                 (A') (A") (A") (A') (A') (A') (A') (A') (A") (A")
                 (A") (A') (A') (A') (A') (A') (A') (A") (A") (A")
                 (A") (A') (A') (A') (A') (A") (A') (A') (A") (A")
                 (A") (A") (A') (A') (A') (A') (A') (A') (A') (A')
                 (A') (A') (A") (A') (A') (A') (A') (A') (A") (A")
                 (A") (A") (A') (A") (A') (A') (A') (A') (A') (A')
                 (A') (A') (A') (A') (A') (A') (A') (A') (A') (A')
                 (A') (A') (A') (A') (A') (A") (A") (A") (A') (A')
                 (A') (A') (A') (A') (A') (A') (A')
 Beta  Orbitals:
       Occupied  (A') (A') (A') (A') (A') (A') (A') (A') (A') (A')
                 (A') (A') (A') (A') (A') (A") (A") (A") (A') (A')
                 (A') (A') (A') (A') (A') (A') (A') (A') (A') (A')
                 (A') (A') (A') (A') (A") (A') (A') (A") (A") (A')
                 (A') (A') (A") (A") (A")
       Virtual   (A') (A') (A') (A') (A") (A") (A') (A') (A") (A')
                 (A") (A") (A') (A') (A') (A') (A') (A') (A") (A")
                 (A") (A') (A') (A') (A') (A') (A") (A') (A') (A")
                 (A") (A') (A') (A') (A') (A") (A') (A') (A') (A')
                 (A') (A') (A') (A') (A') (A') (A') (A') (A') (A')
                 (A') (A') (A') (A') (A") (A') (A') (A") (A") (A')
                 (A') (A') (A') (A") (A') (A') (A") (A") (A") (A")
                 (A') (A') (A") (A') (A') (A') (A') (A') (A') (A')
                 (A') (A") (A') (A') (A') (A') (A') (A') (A") (A")
                 (A") (A") (A") (A') (A') (A') (A') (A') (A') (A")
                 (A') (A') (A') (A") (A") (A") (A') (A') (A') (A')
                 (A') (A') (A") (A") (A') (A') (A') (A') (A') (A")
                 (A") (A") (A') (A') (A') (A') (A') (A') (A") (A")
                 (A") (A") (A') (A') (A') (A') (A") (A') (A') (A")
                 (A") (A") (A") (A') (A') (A') (A') (A') (A') (A')
                 (A') (A') (A') (A") (A') (A') (A') (A') (A') (A")
                 (A") (A") (A") (A') (A") (A') (A') (A') (A') (A')
                 (A') (A') (A') (A') (A') (A') (A') (A') (A') (A')
                 (A') (A') (A') (A') (A') (A') (A") (A") (A") (A')
                 (A') (A') (A') (A') (A') (A') (A') (A')
 Initial guess <Sx>= 0.0000 <Sy>= 0.0000 <Sz>= 0.5000 <S**2>= 0.7535 S= 0.5017
 ExpMin= 3.60D-02 ExpMax= 1.06D+05 ExpMxC= 3.62D+03 IAcc=3 IRadAn=         5 AccDes= 0.00D+00
 Harris functional with IExCor= 1009 and IRadAn=       5 diagonalized for initial guess.
 HarFok:  IExCor= 1009 AccDes= 0.00D+00 IRadAn=         5 IDoV= 1 UseB2=F ITyADJ=14
 ICtDFT=  3500011 ScaDFX=  1.000000  1.000000  1.000000  1.000000
 FoFCou: FMM=F IPFlag=           0 FMFlag=      100000 FMFlg1=           0
         NFxFlg=           0 DoJE=T BraDBF=F KetDBF=T FulRan=T
         wScrn=  0.000000 ICntrl=       500 IOpCl=  0 I1Cent=   200000004 NGrid=           0
         NMat0=    1 NMatS0=      1 NMatT0=    0 NMatD0=    1 NMtDS0=    0 NMtDT0=    0
 Petite list used in FoFCou.
 Keep R1 and R2 ints in memory in symmetry-blocked form, NReq=695666862.
 Requested convergence on RMS density matrix=1.00D-08 within 128 cycles.
 Requested convergence on MAX density matrix=1.00D-06.
 Requested convergence on             energy=1.00D-06.
 No special actions if energy rises.
 SCF Done:  E(UM062X) =  -1610.98193187     A.U. after   32 cycles
            NFock= 32  Conv=0.53D-08     -V/T= 2.0024
 <Sx>= 0.0000 <Sy>= 0.0000 <Sz>= 0.5000 <S**2>= 0.7542 S= 0.5021
 <L.S>=  0.00000000000    
 Annihilation of the first spin contaminant:
 S**2 before annihilation     0.7542,   after     0.7500
 Calling FoFJK, ICntrl=      2127 FMM=F ISym2X=1 I1Cent= 0 IOpClX= 1 NMat=1 NMatS=1 NMatT=0.
 ***** Axes restored to original set *****
 -------------------------------------------------------------------
 Center     Atomic                   Forces (Hartrees/Bohr)
 Number     Number              X              Y              Z
 -------------------------------------------------------------------
      1        6          -0.007433975    0.004069746   -0.000000000
      2        6           0.000131542   -0.006441825   -0.000000000
      3        6           0.007246157    0.004455476   -0.000000000
      4        6          -0.005657920    0.002990672   -0.000000000
      5        6           0.000270572   -0.008449074   -0.000000000
      6        6           0.005315038    0.003245726   -0.000000000
      7       17          -0.002105804   -0.001296895   -0.000000000
      8        1           0.000898902   -0.000491097   -0.000000000
      9       17          -0.000075106    0.002672869   -0.000000000
     10        1          -0.000863929   -0.000534107   -0.000000000
     11       17           0.002304113   -0.001251636   -0.000000000
     12        1          -0.000029590    0.001030144   -0.000000000
[...]
    R7        2.05001  -0.00002   0.00000  -0.00006  -0.00006   2.04995
    R8        2.62630  -0.00001   0.00000  -0.00005  -0.00005   2.62624
    R9        3.34249  -0.00000   0.00000   0.00002   0.00002   3.34251
   R10        2.62622   0.00001   0.00000   0.00003   0.00003   2.62624
   R11        2.04216  -0.00000   0.00000  -0.00001  -0.00001   2.04216
   R12        3.34250   0.00001   0.00000   0.00001   0.00001   3.34251
    A1        2.05559   0.00001   0.00000   0.00008   0.00008   2.05567
    A2        2.11684   0.00001   0.00000   0.00010   0.00010   2.11694
    A3        2.11076  -0.00002   0.00000  -0.00018  -0.00018   2.11058
    A4        2.13426  -0.00001   0.00000  -0.00010  -0.00010   2.13416
    A5        2.07492   0.00000   0.00000  -0.00052  -0.00052   2.07441
    A6        2.07400   0.00001   0.00000   0.00061   0.00061   2.07462
    A7        2.05566  -0.00000   0.00000   0.00000   0.00000   2.05567
    A8        2.11673   0.00002   0.00000   0.00023   0.00023   2.11695
    A9        2.11080  -0.00002   0.00000  -0.00023  -0.00023   2.11057
   A10        2.13801   0.00002   0.00000   0.00011   0.00011   2.13811
   A11        2.09056  -0.00004   0.00000  -0.00022  -0.00022   2.09034
   A12        2.05462   0.00002   0.00000   0.00011   0.00011   2.05473
   A13        2.04477  -0.00002   0.00000  -0.00012  -0.00012   2.04465
   A14        2.11919   0.00001   0.00000   0.00008   0.00008   2.11927
   A15        2.11922   0.00001   0.00000   0.00004   0.00004   2.11927
   A16        2.13808   0.00000   0.00000   0.00003   0.00003   2.13811
   A17        2.09048  -0.00003   0.00000  -0.00015  -0.00015   2.09034
   A18        2.05462   0.00002   0.00000   0.00012   0.00012   2.05474
    D1        0.00000   0.00000   0.00000  -0.00000   0.00000   0.00000
    D2        3.14159   0.00000   0.00000  -0.00000   0.00000   3.14159
    D3        3.14159   0.00000   0.00000   0.00000   0.00000   3.14159
    D4        0.00000   0.00000   0.00000   0.00000  -0.00000   0.00000
    D5        0.00000  -0.00000   0.00000   0.00000  -0.00000   0.00000
    D6        3.14159   0.00000   0.00000   0.00000   0.00000   3.14159
    D7        3.14159   0.00000   0.00000  -0.00000   0.00000   3.14159
    D8        0.00000   0.00000   0.00000  -0.00000   0.00000   0.00000
    D9       -0.00000  -0.00000   0.00000   0.00000   0.00000   0.00000
   D10        3.14159  -0.00000   0.00000   0.00000   0.00000   3.14159
   D11        3.14159  -0.00000   0.00000   0.00000   0.00000   3.14159
   D12       -0.00000  -0.00000   0.00000   0.00000   0.00000   0.00000
   D13        0.00000  -0.00000   0.00000   0.00000  -0.00000   0.00000
   D14        3.14159  -0.00000   0.00000   0.00000   0.00000   3.14159
   D15        3.14159  -0.00000   0.00000  -0.00000   0.00000   3.14159
   D16       -0.00000  -0.00000   0.00000   0.00000   0.00000   0.00000
   D17       -0.00000   0.00000   0.00000  -0.00000   0.00000   0.00000
   D18        3.14159   0.00000   0.00000   0.00000   0.00000   3.14159
   D19        3.14159   0.00000   0.00000  -0.00000   0.00000   3.14159
   D20        0.00000   0.00000   0.00000  -0.00000   0.00000   0.00000
   D21        0.00000  -0.00000   0.00000  -0.00000  -0.00000   0.00000
   D22        3.14159  -0.00000   0.00000  -0.00000   0.00000   3.14159
   D23        3.14159  -0.00000   0.00000  -0.00000   0.00000   3.14159
   D24       -0.00000  -0.00000   0.00000  -0.00000   0.00000   0.00000
         Item               Value     Threshold  Converged?
 Maximum Force            0.000037     0.000450     YES
 RMS     Force            0.000012     0.000300     YES
 Maximum Displacement     0.001918     0.001800     NO 
 RMS     Displacement     0.000342     0.001200     YES
 Predicted change in Energy=-2.571554D-08
                           ----------------------------
                           ! Non-Optimized Parameters !
                           ! (Angstroms and Degrees)  !
 --------------------------                            --------------------------
 ! Name  Definition              Value          Derivative Info.                !
 --------------------------------------------------------------------------------
 ! R1    R(1,2)                  1.384          -DE/DX =    0.0                 !
 ! R2    R(1,6)                  1.3891         -DE/DX =    0.0                 !
 ! R3    R(1,8)                  1.0848         -DE/DX =    0.0                 !
 ! R4    R(2,3)                  1.384          -DE/DX =    0.0                 !
 ! R5    R(2,9)                  2.509          -DE/DX =    0.0                 !
 ! R6    R(3,4)                  1.3891         -DE/DX =    0.0                 !
 ! R7    R(3,10)                 1.0848         -DE/DX =    0.0                 !
 ! R8    R(4,5)                  1.3897         -DE/DX =    0.0                 !
 ! R9    R(4,11)                 1.7688         -DE/DX =    0.0                 !
 ! R10   R(5,6)                  1.3897         -DE/DX =    0.0                 !
 ! R11   R(5,12)                 1.0807         -DE/DX =    0.0                 !
 ! R12   R(6,7)                  1.7688         -DE/DX =    0.0                 !
 ! A1    A(2,1,6)              117.7811         -DE/DX =    0.0                 !
 ! A2    A(2,1,8)              121.2918         -DE/DX =    0.0                 !
 ! A3    A(6,1,8)              120.9271         -DE/DX =    0.0                 !
 ! A4    A(1,2,3)              122.2785         -DE/DX =    0.0                 !
 ! A5    A(1,2,9)              118.8548         -DE/DX =    0.0                 !
 ! A6    A(3,2,9)              118.8667         -DE/DX =    0.0                 !
 ! A7    A(2,3,4)              117.781          -DE/DX =    0.0                 !
 ! A8    A(2,3,10)             121.2925         -DE/DX =    0.0                 !
 ! A9    A(4,3,10)             120.9266         -DE/DX =    0.0                 !
 ! A10   A(3,4,5)              122.5048         -DE/DX =    0.0                 !
 ! A11   A(3,4,11)             119.7678         -DE/DX =    0.0                 !
 ! A12   A(5,4,11)             117.7273         -DE/DX =    0.0                 !
 ! A13   A(4,5,6)              117.1499         -DE/DX =    0.0                 !
 ! A14   A(4,5,12)             121.425          -DE/DX =    0.0                 !
 ! A15   A(6,5,12)             121.4252         -DE/DX =    0.0                 !
 ! A16   A(1,6,5)              122.5048         -DE/DX =    0.0                 !
 ! A17   A(1,6,7)              119.7674         -DE/DX =    0.0                 !
 ! A18   A(5,6,7)              117.7278         -DE/DX =    0.0                 !
 ! D1    D(6,1,2,3)              0.0            -DE/DX =    0.0                 !
 ! D2    D(6,1,2,9)            180.0            -DE/DX =    0.0                 !
 ! D3    D(8,1,2,3)            180.0            -DE/DX =    0.0                 !
 ! D4    D(8,1,2,9)              0.0            -DE/DX =    0.0                 !
 ! D5    D(2,1,6,5)              0.0            -DE/DX =    0.0                 !
 ! D6    D(2,1,6,7)            180.0            -DE/DX =    0.0                 !
 ! D7    D(8,1,6,5)            180.0            -DE/DX =    0.0                 !
 ! D8    D(8,1,6,7)              0.0            -DE/DX =    0.0                 !
 ! D9    D(1,2,3,4)              0.0            -DE/DX =    0.0                 !
 ! D10   D(1,2,3,10)           180.0            -DE/DX =    0.0                 !
 ! D11   D(9,2,3,4)            180.0            -DE/DX =    0.0                 !
 ! D12   D(9,2,3,10)             0.0            -DE/DX =    0.0                 !
 ! D13   D(2,3,4,5)              0.0            -DE/DX =    0.0                 !
 ! D14   D(2,3,4,11)           180.0            -DE/DX =    0.0                 !
 ! D15   D(10,3,4,5)           180.0            -DE/DX =    0.0                 !
 ! D16   D(10,3,4,11)            0.0            -DE/DX =    0.0                 !
 ! D17   D(3,4,5,6)              0.0            -DE/DX =    0.0                 !
 ! D18   D(3,4,5,12)           180.0            -DE/DX =    0.0                 !
 ! D19   D(11,4,5,6)           180.0            -DE/DX =    0.0                 !
 ! D20   D(11,4,5,12)            0.0            -DE/DX =    0.0                 !
 ! D21   D(4,5,6,1)              0.0            -DE/DX =    0.0                 !
 ! D22   D(4,5,6,7)            180.0            -DE/DX =    0.0                 !
 ! D23   D(12,5,6,1)           180.0            -DE/DX =    0.0                 !
 ! D24   D(12,5,6,7)             0.0            -DE/DX =    0.0                 !
 --------------------------------------------------------------------------------
 GradGradGradGradGradGradGradGradGradGradGradGradGradGradGradGradGradGrad


 ----------------------------------------------------------------------

 Electric dipole moment (input orientation):
 (Debye = 10**-18 statcoulomb cm , SI units = C m)
                  (au)            (Debye)         (10**-30 SI)
   Tot        0.400081D+01      0.101690D+02      0.339202D+02
   x          0.114881D+00      0.291997D+00      0.973998D+00
   y         -0.399916D+01     -0.101648D+02     -0.339063D+02
   z          0.000000D+00      0.000000D+00      0.000000D+00

 Dipole polarizability, Alpha (input orientation).
 (esu units = cm**3 , SI units = C**2 m**2 J**-1)
 Alpha(0;0):
               (au)            (10**-24 esu)      (10**-40 SI)
   iso        0.136700D+03      0.202568D+02      0.225387D+02
   aniso      0.113664D+03      0.168433D+02      0.187407D+02
   xx         0.143895D+03      0.213231D+02      0.237251D+02
   yx        -0.155055D+01     -0.229767D+00     -0.255650D+00
   yy         0.198411D+03      0.294015D+02      0.327136D+02
   zx         0.000000D+00      0.000000D+00      0.000000D+00
   zy         0.000000D+00      0.000000D+00      0.000000D+00
   zz         0.677925D+02      0.100458D+02      0.111775D+02

 ----------------------------------------------------------------------

 Dipole orientation:
     6         -6.04075714         -0.17352801         -0.43980523
     6         -3.75141546         -0.10776392         -1.70258686
     6         -1.46149328         -0.04198315         -0.44082301
     6         -1.51023133         -0.04338321          2.18358633
     6         -3.75016317         -0.10772795          3.55325641
     6         -5.99064313         -0.17208843          2.18463263
    17         -8.85842914         -0.25446903          3.89965649
     1         -7.81819059         -0.22458693         -1.45995446
    17         -3.75029112         -0.10773162         -6.44381774
     1          0.31535562          0.00905897         -1.46196536
    17          1.35831892          0.03901934          3.89732114
     1         -3.74966688         -0.10771369          5.59541823

 Electric dipole moment (dipole orientation):
 (Debye = 10**-18 statcoulomb cm , SI units = C m)
                  (au)            (Debye)         (10**-30 SI)
   Tot        0.400081D+01      0.101690D+02      0.339202D+02
   x          0.000000D+00      0.000000D+00      0.000000D+00
   y          0.000000D+00      0.000000D+00      0.000000D+00
   z          0.400081D+01      0.101690D+02      0.339202D+02

 Dipole polarizability, Alpha (dipole orientation).
 (esu units = cm**3 , SI units = C**2 m**2 J**-1)
 Alpha(0;0):
               (au)            (10**-24 esu)      (10**-40 SI)
   iso        0.136700D+03      0.202568D+02      0.225387D+02
   aniso      0.113664D+03      0.168433D+02      0.187407D+02
   xx         0.143789D+03      0.213073D+02      0.237075D+02
   yx         0.218308D+01      0.323499D+00      0.359941D+00
   yy         0.678552D+02      0.100551D+02      0.111878D+02
   zx        -0.167412D-01     -0.248079D-02     -0.276025D-02
   zy        -0.480912D-03     -0.712638D-04     -0.792916D-04
   zz         0.198455D+03      0.294080D+02      0.327208D+02

 ----------------------------------------------------------------------
 1\1\GINC-SH03-08N33\Freq\UM062X\6-311++G(d,p)\C6H3Cl3(1-,2)\JLAPIER\09
 -Dec-2025\0\\#N Geom=AllCheck Guess=TCheck SCRF=Check GenChk UM062X/6-
 311++G(d,p) Freq\\3-Chloro-Benzene Anion Radical (135)\\-1,2\C,-3.2033
 138469,0.1408118669,0.\C,-2.0110343521,0.843572447,0.\C,-0.7800872367,
 0.2109607737,0.\C,-0.7660004423,-1.1779850652,0.\C,-1.9305092138,-1.93
 65341618,0.\C,-3.1369163667,-1.2466463834,0.\Cl,-4.6284236105,-2.19741
 7642,0.\H,-4.1593922752,0.653409783,0.\Cl,-2.0824823024,3.3515063235,0
 .\H,0.1446644696,0.7781135502,0.\Cl,0.7780111503,-2.0408749808,0.\H,-1
 .8992159732,-3.0167465112,0.\\Version=ES64L-G16RevB.01\State=2-A'\HF=-
 1611.0067918\S2=0.761563\S2-1=0.\S2A=0.750088\RMSD=8.530e-09\RMSF=1.62
 6e-05\ZeroPoint=0.0686883\Thermal=0.0777882\Dipole=0.1148806,-3.999155
 8,0.\DipoleDeriv=-0.0906265,-0.0902183,0.,-0.0947317,-0.5977821,0.,0.,
 0.,-0.1235022,-0.0968811,-0.0478486,0.,-0.0477007,1.5669063,0.,0.,0.,-
 0.0587486,-0.1030834,0.1189208,0.,0.1231873,-0.5854385,0.,0.,0.,-0.123
 4205,1.1262494,-0.5466448,0.,-0.4593751,0.6653919,0.,0.,0.,0.0056053,-
 0.5736862,-0.0084354,0.,-0.0084438,-0.2824688,0.,0.,0.,-0.165195,1.066
 6444,0.5699342,0.,0.4827662,0.7251451,0.,0.,0.,0.0056274,-0.8160092,-0
 .5869765,0.,-0.4380696,-0.590002,0.,0.,0.,-0.1343757,-0.046087,-0.0337
 153,0.,0.0555756,0.0775059,0.,0.,0.,0.1172858,-0.6330925,0.0246972,0.,
 0.0248658,-1.5002749,0.,0.,0.,-0.658473,-0.0442829,0.026695,0.,-0.0626
 439,0.0758472,0.,0.,0.,0.1172722,-0.8742669,0.5704488,0.,0.4214287,-0.
 5315033,0.,0.,0.,-0.1343495,0.085122,0.0031429,0.,0.0031413,-0.0233268
 ,0.,0.,0.,0.1522738\Polar=143.8954164,-1.5505451,198.4110633,0.,0.,67.
 7925378\Quadrupole=9.2695179,-23.2971575,14.0276397,0.9340136,0.,0.\PG
 =CS [SG(C6H3Cl3)]\NImag=0\\0.72841792,-0.05241038,0.62847459,0.,0.,0.1
 2508265,-0.28949702,-0.08237966,0.,0.64353868,-0.12212056,-0.13779287,
 0.,0.00960648,0.31212970,0.,0.,-0.05184365,0.,0.,0.07350177,-0.0474482
 9,-0.01680769,0.,-0.30078543,0.11268312,0.,0.72200504,0.01064871,0.058
 81205,0.,0.07293627,-0.12648196,0.,0.05782991,0.63496648,0.,0.,0.00318
 681,0.,0.,-0.05184455,0.,0.,0.12508176,-0.01666128,-0.03643555,0.,0.03
 162982,0.02429050,0.,-0.10639448,0.02255053,0.,0.52529626,-0.02768672,
 -0.06232976,0.,0.10285212,-0.02370294,0.,-0.06529227,-0.32515147,0.,0.
 08503165,0.61426653,0.,0.,-0.00464664,0.,0.,0.01546476,0.,0.,-0.063705
 03,0.,0.,0.12087209,0.03121386,0.08119759,0.,-0.07896445,-0.00232480,0
 .,0.03706924,-0.07762463,0.,-0.25516154,-0.07186618,0.,0.65860900,0.02
 322405,-0.02461031,0.,-0.00232164,0.00124614,0.,-0.01965177,-0.0304584
 9,0.,-0.14749966,-0.18898417,0.,-0.00342077,0.77486286,0.,0.,0.0093321
 7,0.,0.,-0.00475783,0.,0.,0.00933215,0.,0.,-0.05990318,0.,0.,0.1170331
 0,-0.10959004,-0.01004371,0.,0.03879084,-0.02067082,0.,-0.02052442,0.0
 3886046,0.,-0.06857753,-0.04186930,0.,-0.26768782,0.14298897,0.,0.5354
 9750,0.07779994,-0.32187800,0.,-0.09924162,-0.03086302,0.,0.03011414,-
 0.05847368,0.,0.03374278,0.07153629,0.,0.06735739,-0.17655417,0.,-0.08
 966587,0.60407951,0.,0.,-0.06370968,0.,0.,0.01547151,0.,0.,-0.00464786
 ,0.,0.,0.00303963,0.,0.,-0.05989755,0.,0.,0.12086673,-0.01682830,-0.00
 888370,0.,0.00222260,-0.00199635,0.,-0.00115291,-0.00012438,0.,0.00010
 833,0.00429780,0.,-0.03721557,-0.02607703,0.,-0.11130391,-0.04270315,0
 .,0.16364529,-0.03933984,-0.01741462,0.,0.00386936,-0.00379595,0.,-0.0
 0127133,0.00205296,0.,0.00021293,-0.00151066,0.,0.00203165,0.00318730,
 0.,-0.04491821,-0.06597122,0.,0.07924682,0.08392421,0.,0.,0.00452345,0
 .,0.,0.00425360,0.,0.,-0.00051138,0.,0.,0.00566255,0.,0.,0.00362342,0.
 ,0.,-0.02152451,0.,0.,0.01005442,-0.26954429,0.12568179,0.,-0.02259284
 ,0.00834355,0.,-0.00343570,-0.00031295,0.,-0.00012094,-0.00194377,0.,0
 .00180868,-0.00048389,0.,0.00084061,-0.00236191,0.,0.00104822,-0.00037
 956,0.,0.29164513,0.11823116,-0.11759303,0.,-0.01352660,0.01295273,0.,
 -0.00412319,-0.00102062,0.,-0.00093183,-0.00078590,0.,-0.00105746,-0.0
 0500863,0.,0.02705520,-0.01270167,0.,0.00051709,0.00122583,0.,-0.12781
 992,0.12210118,0.,0.,-0.03430816,0.,0.,-0.00202008,0.,0.,0.00790007,0.
 ,0.,-0.00011079,0.,0.,0.00565000,0.,0.,0.00330624,0.,0.,-0.00233060,0.
 ,0.,0.02304827,-0.00051736,-0.00212896,0.,-0.00228111,0.00033392,0.,-0
 .00044307,0.00255634,0.,-0.00033998,-0.00108624,0.,0.00099267,0.000068
 06,0.,-0.00048024,0.00084046,0.,0.00044582,0.00018147,0.,0.00064075,0.
 00081618,0.,0.00102254,0.00396256,-0.00785720,0.,0.00033710,-0.0139051
 0,0.,-0.00353403,-0.00794906,0.,-0.00158714,0.00384600,0.,0.00006784,-
 0.00137214,0.,0.00133786,0.00398528,0.,-0.00361193,-0.00317976,0.,-0.0
 0146290,0.00066120,0.,-0.00078379,0.02817041,0.,0.,-0.00014345,0.,0.,0
 .00065536,0.,0.,-0.00014179,0.,0.,0.00012243,0.,0.,0.00000917,0.,0.,0.
 00012109,0.,0.,0.00012374,0.,0.,-0.00039514,0.,0.,0.00013059,-0.003684
 74,0.00015865,0.,-0.02277905,-0.01041834,0.,-0.25493289,-0.13365882,0.
 ,0.00222567,0.00322856,0.,0.00169673,0.00087339,0.,-0.00028951,0.00197
 245,0.,-0.00010313,-0.00036770,0.,-0.00041451,-0.00052131,0.,0.0006049
 9,0.00145889,0.,0.27629806,0.00396906,-0.00077316,0.,0.01145465,0.0131
 3206,0.,-0.12621532,-0.13221893,0.,-0.02618696,-0.01408373,0.,0.001446
 34,-0.00489616,0.,0.00096055,-0.00061711,0.,-0.00015205,0.00008190,0.,
 0.00047065,0.00045910,0.,-0.00081763,0.00069931,0.,0.13677624,0.137463
 64,0.,0.,0.00789857,0.,0.,-0.00201589,0.,0.,-0.03431238,0.,0.,0.003307
 27,0.,0.,0.00565094,0.,0.,-0.00011068,0.,0.,-0.00129588,0.,0.,-0.00006
 276,0.,0.,-0.00039732,0.,0.,0.02305043,-0.00122279,-0.00006432,0.,0.00
 230712,0.00234747,0.,-0.01961204,0.00875556,0.,-0.11621419,0.03980118,
 0.,-0.03846919,0.02366216,0.,0.00036335,-0.00419019,0.,-0.00146179,0.0
 0012411,0.,-0.00013270,0.00013938,0.,0.00023990,0.00380856,0.,0.001057
 24,-0.00052630,0.,0.17252936,0.00108138,0.00212202,0.,-0.00351231,-0.0
 0388250,0.,0.03921009,-0.01462357,0.,0.04201366,-0.06107467,0.,-0.0044
 4548,0.00444042,0.,-0.00010444,-0.00176530,0.,-0.00022331,0.00025063,0
 .,0.00035535,0.00011156,0.,0.00001305,-0.00296854,0.,0.00036954,0.0012
 1814,0.,-0.07411604,0.07504489,0.,0.,-0.00051123,0.,0.,0.00425452,0.,0
 .,0.00452359,0.,0.,-0.02152638,0.,0.,0.00362234,0.,0.,0.00566178,0.,0.
 ,0.00022634,0.,0.,-0.00129604,0.,0.,0.00012384,0.,0.,-0.00233121,0.,0.
 ,0.01005725,-0.00463766,0.00211593,0.,-0.00158914,-0.00007417,0.,-0.00
 434506,-0.00241700,0.,0.00420986,-0.02546684,0.,-0.05389159,0.00863814
 ,0.,0.00296119,0.02633560,0.,0.00059535,0.00061030,0.,0.00025758,0.001
 22130,0.,0.00011508,0.00000698,0.,0.00032114,-0.00117923,0.,0.00061574
 ,-0.00064150,0.,0.05538750,0.00264065,0.00084031,0.,-0.00007414,0.0009
 6373,0.,-0.00294166,0.00054630,0.,0.00479910,-0.01202553,0.,0.00863852
 ,-0.35185263,0.,-0.00393071,-0.01077692,0.,-0.00028982,0.00114938,0.,-
 0.00008643,-0.00040175,0.,0.00000714,-0.00013042,0.,0.00012845,-0.0004
 6507,0.,0.00025842,0.00112691,0.,-0.00914952,0.37102568,0.,0.,0.005139
 17,0.,0.,-0.00111953,0.,0.,0.00513861,0.,0.,0.00142329,0.,0.,-0.029694
 73,0.,0.,0.00142329,0.,0.,-0.00280515,0.,0.,0.00061899,0.,0.,-0.000208
 53,0.,0.,0.00061891,0.,0.,-0.00280479,0.,0.,0.02227047\\0.00000328,-0.
 00003602,0.,0.00000010,0.00000553,0.,-0.00001470,-0.00005004,0.,0.0000
 3744,0.00003277,0.,-0.00002105,0.00001031,0.,-0.00000746,0.00001441,0.
 ,0.00001263,-0.00000944,0.,-0.00001457,0.00002625,0.,0.00000248,-0.000
 00264,0.,0.00000673,0.00002568,0.,-0.00000680,-0.00001572,0.,0.0000019
 4,-0.00000109,0.\\\@


 THOSE WHO TRY TO PASS CHEMISTRY OFF AS A NEW SCIENCE
 SHOW HOW LITTLE KNOWLEDGE THEY HAVE OF THE CHARACTER
 AND LITERATURE OF THE ANCIENTS.
   -- NICOLAS LEFEVRE
 "COURS DE CHYMIE" J.-N.LELOUP, PARIS, 1751
 Job cpu time:       0 days  0 hours 26 minutes 39.3 seconds.
 Elapsed time:       0 days  0 hours  6 minutes 42.2 seconds.
 File lengths (MBytes):  RWF=    190 Int=      0 D2E=      0 Chk=     34 Scr=      1
 Normal termination of Gaussian 16 at Tue Dec  9 14:56:15 2025.
