 Entering Gaussian System, Link 0=g16
 Initial command:
 /share/software/user/restricted/gaussian/g16.B01/l1.exe "/home/users/jlapier/Chloroaromatics/Gau-170809.inp" -scrdir="/home/users/jlapier/Chloroaromatics/"
 Entering Link 1 = /share/software/user/restricted/gaussian/g16.B01/l1.exe PID=    170810.
  
 Copyright (c) 1988-2017, Gaussian, Inc.  All Rights Reserved.
  
 This is part of the Gaussian(R) 16 program.  It is based on
 the Gaussian(R) 09 system (copyright 2009, Gaussian, Inc.),
 the Gaussian(R) 03 system (copyright 2003, Gaussian, Inc.),
 the Gaussian(R) 98 system (copyright 1998, Gaussian, Inc.),
 the Gaussian(R) 94 system (copyright 1995, Gaussian, Inc.),
 the Gaussian 92(TM) system (copyright 1992, Gaussian, Inc.),
 the Gaussian 90(TM) system (copyright 1990, Gaussian, Inc.),
 the Gaussian 88(TM) system (copyright 1988, Gaussian, Inc.),
 the Gaussian 86(TM) system (copyright 1986, Carnegie Mellon
 University), and the Gaussian 82(TM) system (copyright 1983,
 Carnegie Mellon University). Gaussian is a federally registered
 trademark of Gaussian, Inc.
  
 This software contains proprietary and confidential information,
 including trade secrets, belonging to Gaussian, Inc.
  
 This software is provided under written license and may be
 used, copied, transmitted, or stored only in accord with that
 written license.
  
 The following legend is applicable only to US Government
 contracts under FAR:
  
                    RESTRICTED RIGHTS LEGEND
  
 Use, reproduction and disclosure by the US Government is
 subject to restrictions as set forth in subparagraphs (a)
 and (c) of the Commercial Computer Software - Restricted
 Rights clause in FAR 52.227-19.
  
 Gaussian, Inc.
 340 Quinnipiac St., Bldg. 40, Wallingford CT 06492
  
  
 ---------------------------------------------------------------
 Warning -- This program may not be used in any manner that
 competes with the business of Gaussian, Inc. or will provide
 assistance to any competitor of Gaussian, Inc.  The licensee
 of this program is prohibited from giving any competitor of
 Gaussian, Inc. access to this program.  By using this program,
 the user acknowledges that Gaussian, Inc. is engaged in the
 business of creating and licensing software in the field of
 computational chemistry and represents and warrants to the
 licensee that it is not a competitor of Gaussian, Inc. and that
 it will not use this program in any manner prohibited above.
 ---------------------------------------------------------------
  

 Cite this work as:
 Gaussian 16, Revision B.01,
 M. J. Frisch, G. W. Trucks, H. B. Schlegel, G. E. Scuseria, 
 M. A. Robb, J. R. Cheeseman, G. Scalmani, V. Barone, 
 G. A. Petersson, H. Nakatsuji, X. Li, M. Caricato, A. V. Marenich, 
 J. Bloino, B. G. Janesko, R. Gomperts, B. Mennucci, H. P. Hratchian, 
 J. V. Ortiz, A. F. Izmaylov, J. L. Sonnenberg, D. Williams-Young, 
 F. Ding, F. Lipparini, F. Egidi, J. Goings, B. Peng, A. Petrone, 
 T. Henderson, D. Ranasinghe, V. G. Zakrzewski, J. Gao, N. Rega, 
 G. Zheng, W. Liang, M. Hada, M. Ehara, K. Toyota, R. Fukuda, 
 J. Hasegawa, M. Ishida, T. Nakajima, Y. Honda, O. Kitao, H. Nakai, 
 T. Vreven, K. Throssell, J. A. Montgomery, Jr., J. E. Peralta, 
 F. Ogliaro, M. J. Bearpark, J. J. Heyd, E. N. Brothers, K. N. Kudin, 
 V. N. Staroverov, T. A. Keith, R. Kobayashi, J. Normand, 
 K. Raghavachari, A. P. Rendell, J. C. Burant, S. S. Iyengar, 
 J. Tomasi, M. Cossi, J. M. Millam, M. Klene, C. Adamo, R. Cammi, 
 J. W. Ochterski, R. L. Martin, K. Morokuma, O. Farkas, 
 J. B. Foresman, and D. J. Fox, Gaussian, Inc., Wallingford CT, 2016.
 
 ******************************************
 Gaussian 16:  ES64L-G16RevB.01 20-Dec-2017
                 9-Dec-2025 
 ******************************************
 %mem=8GB
 %nprocshare=4
 Will use up to    4 processors via shared memory.
 %oldchk=geometry_chks/13_ClBzNeutralRadical.chk
 %chk=frequency_chks/13_ClBzNeutralRadical_Freq.chk
 Copying data from "geometry_chks/13_ClBzNeutralRadical.chk" to current chk file "frequency_chks/13_ClBzNeutralRadical_Freq.chk"
 IOpt=  2 FromEx=T IUOpen= 4 IOptOp= 5 NList=   0 IFRang= 0 IUIn= 4 IUOut= 2.
 -------------------------------------------------------
 # opt freq 6-311++g(d,p) guess=read geom=allcheck m062x
 -------------------------------------------------------
 1/18=20,19=15,26=3,29=7,38=1/1,3;
 2/9=110,12=2,40=1/2;
 3/5=4,6=6,7=1111,11=2,14=-4,25=1,30=1,71=1,74=-55,116=-2/1,2,3;
 4/5=1/1;
 5/5=2,38=6/2;
 6/7=2,8=2,9=2,10=2,28=1/1;
 7//1,2,3,16;
 1/18=20,19=15,26=3/3(2);
 2/9=110/2;
 99//99;
 2/9=110/2;
 3/5=4,6=6,7=1111,11=2,14=-2,25=1,30=1,71=1,74=-55/1,2,3;
 4/5=5,16=3,69=1/1;
 5/5=2,38=5/2;
 7//1,2,3,16;
 1/18=20,19=15,26=3/3(-5);
 2/9=110/2;
 6/7=2,8=2,9=2,10=2,19=2,28=1/1;
 99/9=1/99;
 Structure from the checkpoint file:  "frequency_chks/13_ClBzNeutralRadical_Freq.chk"
 -------------------------------
 Neutral Radical (removed 5) 13_
 -------------------------------
 Charge =  0 Multiplicity = 2
 Redundant internal coordinates found in file.  (old form).
 C,0,-3.2072767189,0.1983451387,0.
 C,0,-2.0117325469,0.9398001224,0.
 C,0,-0.7588882277,0.2841309042,0.
 C,0,-0.838917964,-1.0836322164,0.
 C,0,-1.940343346,-1.8985201835,0.
 C,0,-3.1743597095,-1.2080678884,0.
 Cl,0,-4.6244646007,-2.0805962692,0.
 H,0,-4.1758943075,0.7226515828,0.
 Cl,0,-2.0740979605,2.6310188237,0.
 H,0,0.1924339041,0.8301083177,0.
 H,0,-1.8772985224,-2.993558332,0.
 Recover connectivity data from disk.

 GradGradGradGradGradGradGradGradGradGradGradGradGradGradGradGradGradGrad
 Berny optimization.
 Initialization pass.
                           ----------------------------
                           !    Initial Parameters    !
                           ! (Angstroms and Degrees)  !
 --------------------------                            --------------------------
 ! Name  Definition              Value          Derivative Info.                !
 --------------------------------------------------------------------------------
 ! R1    R(1,2)                  1.4068         estimate D2E/DX2                !
 ! R2    R(1,6)                  1.4068         estimate D2E/DX2                !
 ! R3    R(1,8)                  1.1014         estimate D2E/DX2                !
 ! R4    R(2,3)                  1.414          estimate D2E/DX2                !
 ! R5    R(2,9)                  1.6924         estimate D2E/DX2                !
 ! R6    R(3,4)                  1.3701         estimate D2E/DX2                !
 ! R7    R(3,10)                 1.0969         estimate D2E/DX2                !
 ! R8    R(4,5)                  1.3701         estimate D2E/DX2                !
 ! R9    R(5,6)                  1.414          estimate D2E/DX2                !
 ! R10   R(5,11)                 1.0969         estimate D2E/DX2                !
 ! R11   R(6,7)                  1.6924         estimate D2E/DX2                !
 ! A1    A(2,1,6)              120.4657         estimate D2E/DX2                !
 ! A2    A(2,1,8)              119.7672         estimate D2E/DX2                !
 ! A3    A(6,1,8)              119.7672         estimate D2E/DX2                !
 ! A4    A(1,2,3)              120.5685         estimate D2E/DX2                !
 ! A5    A(1,2,9)              119.6946         estimate D2E/DX2                !
 ! A6    A(3,2,9)              119.7369         estimate D2E/DX2                !
 ! A7    A(2,3,4)              114.2764         estimate D2E/DX2                !
 ! A8    A(2,3,10)             122.5228         estimate D2E/DX2                !
 ! A9    A(4,3,10)             123.2008         estimate D2E/DX2                !
 ! A10   A(3,4,5)              129.8445         estimate D2E/DX2                !
 ! A11   A(4,5,6)              114.2764         estimate D2E/DX2                !
 ! A12   A(4,5,11)             123.2008         estimate D2E/DX2                !
 ! A13   A(6,5,11)             122.5228         estimate D2E/DX2                !
 ! A14   A(1,6,5)              120.5685         estimate D2E/DX2                !
 ! A15   A(1,6,7)              119.6946         estimate D2E/DX2                !
 ! A16   A(5,6,7)              119.7369         estimate D2E/DX2                !
 ! D1    D(6,1,2,3)              0.0            estimate D2E/DX2                !
 ! D2    D(6,1,2,9)            180.0            estimate D2E/DX2                !
 ! D3    D(8,1,2,3)            180.0            estimate D2E/DX2                !
 ! D4    D(8,1,2,9)              0.0            estimate D2E/DX2                !
 ! D5    D(2,1,6,5)              0.0            estimate D2E/DX2                !
 ! D6    D(2,1,6,7)            180.0            estimate D2E/DX2                !
 ! D7    D(8,1,6,5)            180.0            estimate D2E/DX2                !
 ! D8    D(8,1,6,7)              0.0            estimate D2E/DX2                !
 ! D9    D(1,2,3,4)              0.0            estimate D2E/DX2                !
 ! D10   D(1,2,3,10)           180.0            estimate D2E/DX2                !
 ! D11   D(9,2,3,4)            180.0            estimate D2E/DX2                !
 ! D12   D(9,2,3,10)             0.0            estimate D2E/DX2                !
 ! D13   D(2,3,4,5)              0.0            estimate D2E/DX2                !
 ! D14   D(10,3,4,5)           180.0            estimate D2E/DX2                !
 ! D15   D(3,4,5,6)              0.0            estimate D2E/DX2                !
 ! D16   D(3,4,5,11)           180.0            estimate D2E/DX2                !
 ! D17   D(4,5,6,1)              0.0            estimate D2E/DX2                !
 ! D18   D(4,5,6,7)            180.0            estimate D2E/DX2                !
 ! D19   D(11,5,6,1)           180.0            estimate D2E/DX2                !
 ! D20   D(11,5,6,7)             0.0            estimate D2E/DX2                !
 --------------------------------------------------------------------------------
 Trust Radius=3.00D-01 FncErr=1.00D-07 GrdErr=1.00D-06 EigMax=2.50D+02 EigMin=1.00D-04
 Number of steps in this run=     57 maximum allowed number of steps=    100.
 GradGradGradGradGradGradGradGradGradGradGradGradGradGradGradGradGradGrad

                          Input orientation:                          
 ---------------------------------------------------------------------
 Center     Atomic      Atomic             Coordinates (Angstroms)
 Number     Number       Type             X           Y           Z
 ---------------------------------------------------------------------
      1          6           0       -3.207277    0.198345    0.000000
      2          6           0       -2.011733    0.939800    0.000000
      3          6           0       -0.758888    0.284131    0.000000
      4          6           0       -0.838918   -1.083632    0.000000
      5          6           0       -1.940343   -1.898520    0.000000
      6          6           0       -3.174360   -1.208068    0.000000
      7         17           0       -4.624465   -2.080596    0.000000
      8          1           0       -4.175894    0.722652    0.000000
      9         17           0       -2.074098    2.631019    0.000000
     10          1           0        0.192434    0.830108    0.000000
     11          1           0       -1.877299   -2.993558    0.000000
 ---------------------------------------------------------------------
                    Distance matrix (angstroms):
                    1          2          3          4          5
     1  C    0.000000
     2  C    1.406798   0.000000
     3  C    2.449891   1.414044   0.000000
     4  C    2.693063   2.338754   1.370102   0.000000
     5  C    2.449891   2.839218   2.481895   1.370102   0.000000
     6  C    1.406798   2.442343   2.839218   2.338754   1.414044
     7  Cl   2.683653   3.993640   4.531514   3.914627   2.690290
     8  H    1.101416   2.175029   3.445030   3.794479   3.445030
     9  Cl   2.683653   1.692368   2.690290   3.914627   4.531513
    10  H    3.457912   2.206894   1.096861   2.173957   3.463257
    11  H    3.457903   3.935655   3.463248   2.173948   1.096851
                    6          7          8          9         10
     6  C    0.000000
     7  Cl   1.692368   0.000000
     8  H    2.175029   2.838911   0.000000
     9  Cl   3.993640   5.357582   2.838911   0.000000
    10  H    3.935665   5.628029   4.369650   2.894900   0.000000
    11  H    2.206886   2.894896   4.369641   5.628019   4.347898
                   11
    11  H    0.000000
 Stoichiometry    C6H3Cl2(2)
 Framework group  CS[SG(C6H3Cl2)]
 Deg. of freedom    19
 Full point group                 CS      NOp   2
 Largest Abelian subgroup         CS      NOp   2
 Largest concise Abelian subgroup C1      NOp   1
                         Standard orientation:                         
 ---------------------------------------------------------------------
 Center     Atomic      Atomic             Coordinates (Angstroms)
 Number     Number       Type             X           Y           Z
 ---------------------------------------------------------------------
      1          6           0        0.666774    0.000000    0.000000
      2          6           0       -0.031669   -1.221171    0.000000
      3          6           0       -1.445574   -1.240947    0.000000
      4          6           0       -2.026290    0.000000    0.000000
      5          6           0       -1.445574    1.240947    0.000000
      6          6           0       -0.031669    1.221172    0.000000
      7         17           0        0.828247    2.678791    0.000000
      8          1           0        1.768190    0.000000    0.000000
      9         17           0        0.828247   -2.678791    0.000000
     10          1           0       -2.022294   -2.173953    0.000000
     11          1           0       -2.022288    2.173945    0.000000
 ---------------------------------------------------------------------
 Rotational constants (GHZ):           3.0806425           0.8651637           0.6754666
 Standard basis: 6-311++G(d,p) (5D, 7F)
 There are   166 symmetry adapted cartesian basis functions of A'  symmetry.
 There are    55 symmetry adapted cartesian basis functions of A"  symmetry.
 There are   158 symmetry adapted basis functions of A'  symmetry.
 There are    55 symmetry adapted basis functions of A"  symmetry.
   213 basis functions,   349 primitive gaussians,   221 cartesian basis functions
    37 alpha electrons       36 beta electrons
       nuclear repulsion energy       442.2310068982 Hartrees.
 NAtoms=   11 NActive=   11 NUniq=   11 SFac= 1.00D+00 NAtFMM=   60 NAOKFM=F Big=F
 Integral buffers will be    131072 words long.
 Raffenetti 2 integral format.
 Two-electron integral symmetry is turned on.
 One-electron integrals computed using PRISM.
 NBasis=   213 RedAO= T EigKep=  1.70D-06  NBF=   158    55
 NBsUse=   213 1.00D-06 EigRej= -1.00D+00 NBFU=   158    55
 Initial guess from the checkpoint file:  "frequency_chks/13_ClBzNeutralRadical_Freq.chk"
 B after Tr=    -0.000000    0.000000   -0.000000
         Rot=    1.000000   -0.000000    0.000000   -0.000000 Ang=   0.00 deg.
 Initial guess orbital symmetries:
 Alpha Orbitals:
       Occupied  (A') (A') (A') (A') (A') (A') (A') (A') (A') (A')
                 (A') (A") (A') (A") (A') (A') (A") (A') (A') (A")
                 (A") (A") (A") (A') (A') (A") (A') (A') (A') (A')
                 (A') (A') (A') (A') (A') (A') (A')
       Virtual   (A') (A') (A') (A') (A') (A') (A') (A') (A') (A')
                 (A') (A') (A') (A') (A') (A') (A') (A') (A') (A')
                 (A') (A') (A') (A') (A') (A') (A') (A') (A') (A')
                 (A') (A') (A') (A') (A') (A') (A') (A') (A') (A')
                 (A') (A') (A') (A') (A') (A') (A') (A') (A') (A')
                 (A') (A') (A') (A') (A') (A') (A') (A') (A') (A')
                 (A') (A') (A') (A') (A') (A') (A') (A') (A') (A')
                 (A') (A') (A') (A') (A') (A') (A') (A') (A') (A')
                 (A') (A') (A') (A') (A') (A') (A') (A') (A') (A')
                 (A') (A') (A') (A') (A') (A') (A') (A') (A') (A')
                 (A') (A') (A') (A') (A') (A') (A') (A') (A') (A')
                 (A') (A') (A') (A') (A') (A') (A') (A') (A') (A')
                 (A') (A') (A') (A') (A') (A') (A') (A') (A') (A")
                 (A") (A") (A") (A") (A") (A") (A") (A") (A") (A")
                 (A") (A") (A") (A") (A") (A") (A") (A") (A") (A")
                 (A") (A") (A") (A") (A") (A") (A") (A") (A") (A")
                 (A") (A") (A") (A") (A") (A") (A") (A") (A") (A")
                 (A") (A") (A") (A") (A") (A")
 Beta  Orbitals:
       Occupied  (A') (A') (A') (A') (A') (A') (A') (A') (A') (A')
                 (A') (A") (A') (A") (A') (A') (A") (A') (A") (A")
                 (A") (A') (A") (A') (A') (A") (A') (A') (A') (A')
                 (A') (A') (A') (A') (A') (A')
       Virtual   (A') (A') (A') (A') (A') (A') (A') (A') (A') (A')
                 (A') (A') (A') (A') (A') (A') (A') (A') (A') (A')
                 (A') (A') (A') (A') (A') (A') (A') (A') (A') (A')
                 (A') (A') (A') (A') (A') (A') (A') (A') (A') (A')
                 (A') (A') (A') (A') (A') (A') (A') (A') (A') (A')
                 (A') (A') (A') (A') (A') (A') (A') (A') (A') (A')
                 (A') (A') (A') (A') (A') (A') (A') (A') (A') (A')
                 (A') (A') (A') (A') (A') (A') (A') (A') (A') (A')
                 (A') (A') (A') (A') (A') (A') (A') (A') (A') (A')
                 (A') (A') (A') (A') (A') (A') (A') (A') (A') (A')
                 (A') (A') (A') (A') (A') (A') (A') (A') (A') (A')
                 (A') (A') (A') (A') (A') (A') (A') (A') (A') (A')
                 (A') (A') (A') (A') (A') (A') (A') (A') (A') (A')
                 (A") (A") (A") (A") (A") (A") (A") (A") (A") (A")
                 (A") (A") (A") (A") (A") (A") (A") (A") (A") (A")
                 (A") (A") (A") (A") (A") (A") (A") (A") (A") (A")
                 (A") (A") (A") (A") (A") (A") (A") (A") (A") (A")
                 (A") (A") (A") (A") (A") (A") (A")
 Initial guess <Sx>= 0.0000 <Sy>= 0.0000 <Sz>= 0.5000 <S**2>= 0.7500 S= 0.5000
 Keep R1 and R2 ints in memory in symmetry-blocked form, NReq=411615841.
 Requested convergence on RMS density matrix=1.00D-08 within 128 cycles.
 Requested convergence on MAX density matrix=1.00D-06.
 Requested convergence on             energy=1.00D-06.
 No special actions if energy rises.
 SCF Done:  E(UM062X) =  -1150.70884856     A.U. after   24 cycles
            NFock= 24  Conv=0.50D-08     -V/T= 2.0025
 <Sx>= 0.0000 <Sy>= 0.0000 <Sz>= 0.5000 <S**2>= 0.7624 S= 0.5062
 <L.S>=  0.00000000000    
 Annihilation of the first spin contaminant:
 S**2 before annihilation     0.7624,   after     0.7501

 **********************************************************************

            Population analysis using the SCF Density.

 **********************************************************************

 Orbital symmetries:
 Alpha Orbitals:
       Occupied  (A') (A') (A') (A') (A') (A') (A') (A') (A') (A')
                 (A') (A') (A") (A") (A') (A') (A') (A') (A') (A')
                 (A') (A') (A') (A') (A') (A') (A') (A") (A') (A')
                 (A") (A') (A") (A') (A") (A') (A")
       Virtual   (A") (A") (A') (A') (A') (A') (A') (A") (A') (A')
                 (A') (A") (A") (A') (A') (A') (A") (A") (A') (A')
                 (A') (A") (A') (A") (A') (A') (A') (A') (A") (A")
                 (A') (A') (A') (A') (A') (A') (A') (A') (A') (A')
                 (A') (A') (A') (A') (A') (A') (A') (A') (A') (A")
                 (A") (A') (A') (A') (A') (A") (A') (A') (A") (A')
                 (A") (A") (A") (A') (A') (A') (A') (A") (A') (A')
                 (A') (A') (A") (A') (A') (A') (A') (A") (A') (A")
                 (A') (A") (A') (A') (A') (A') (A') (A') (A") (A')
                 (A") (A") (A') (A") (A') (A') (A') (A') (A") (A")
                 (A') (A') (A') (A') (A') (A") (A") (A") (A') (A')
                 (A') (A') (A") (A') (A') (A") (A") (A') (A") (A')
                 (A') (A') (A") (A') (A') (A") (A") (A") (A') (A')
                 (A') (A') (A') (A') (A') (A') (A") (A') (A') (A')
                 (A') (A') (A") (A") (A") (A") (A') (A") (A') (A')
                 (A') (A') (A') (A') (A') (A') (A') (A') (A') (A')
                 (A') (A') (A') (A') (A') (A') (A') (A') (A") (A")
                 (A') (A') (A') (A') (A') (A')
 Beta  Orbitals:
       Occupied  (A') (A') (A') (A') (A') (A') (A') (A') (A') (A')
                 (A') (A') (A") (A") (A') (A') (A') (A') (A') (A')
                 (A') (A') (A') (A') (A') (A') (A') (A") (A') (A')
                 (A") (A') (A") (A') (A") (A")
       Virtual   (A') (A") (A') (A") (A') (A') (A') (A') (A") (A')
                 (A") (A') (A") (A') (A') (A') (A') (A") (A") (A')
                 (A') (A') (A') (A") (A") (A') (A') (A') (A') (A")
                 (A') (A") (A') (A') (A') (A') (A') (A') (A') (A')
                 (A') (A') (A') (A') (A') (A') (A') (A') (A') (A')
                 (A") (A") (A') (A') (A') (A') (A") (A') (A') (A')
                 (A") (A") (A") (A') (A") (A') (A') (A") (A') (A')
                 (A') (A') (A') (A") (A') (A') (A') (A') (A") (A')
                 (A") (A') (A") (A') (A') (A') (A') (A') (A') (A")
                 (A') (A") (A") (A') (A") (A') (A') (A') (A') (A")
                 (A") (A') (A') (A') (A') (A') (A") (A") (A") (A')
                 (A') (A') (A') (A") (A') (A') (A") (A") (A') (A")
                 (A') (A') (A') (A") (A') (A') (A") (A") (A") (A')
                 (A') (A') (A') (A') (A') (A') (A') (A") (A') (A')
                 (A') (A') (A') (A") (A") (A") (A") (A') (A") (A')
                 (A') (A') (A') (A') (A') (A') (A') (A') (A') (A')
                 (A') (A') (A') (A') (A') (A') (A') (A') (A') (A")
                 (A") (A') (A') (A') (A') (A') (A')
 The electronic state is 2-A'.
 Alpha  occ. eigenvalues -- -102.69313-102.69313 -10.63583 -10.63583 -10.59497
 Alpha  occ. eigenvalues --  -10.58033 -10.58020 -10.58016  -9.83663  -9.83663
 Alpha  occ. eigenvalues --   -7.56191  -7.56191  -7.55503  -7.55503  -7.55481
 Alpha  occ. eigenvalues --   -7.55481  -1.03628  -1.00408  -0.94863  -0.85633
 Alpha  occ. eigenvalues --   -0.84762  -0.70114  -0.70104  -0.61481  -0.57852
 Alpha  occ. eigenvalues --   -0.54894  -0.52819  -0.50507  -0.49006  -0.46799
 Alpha  occ. eigenvalues --   -0.45320  -0.41061  -0.40851  -0.39025  -0.32872
 Alpha  occ. eigenvalues --   -0.32178  -0.31164
 Alpha virt. eigenvalues --   -0.01570  -0.00778  -0.00174   0.01428   0.01430
 Alpha virt. eigenvalues --    0.03448   0.03840   0.05029   0.05810   0.06718
 Alpha virt. eigenvalues --    0.08096   0.08144   0.08875   0.09005   0.10501
 Alpha virt. eigenvalues --    0.11333   0.11761   0.11984   0.12064   0.13109
 Alpha virt. eigenvalues --    0.13197   0.13775   0.13931   0.14796   0.14880
 Alpha virt. eigenvalues --    0.15276   0.16403   0.17201   0.17851   0.18976
 Alpha virt. eigenvalues --    0.19299   0.20163   0.21416   0.22549   0.22864
 Alpha virt. eigenvalues --    0.23908   0.25173   0.26191   0.27002   0.27674
 Alpha virt. eigenvalues --    0.28293   0.28744   0.30307   0.31670   0.34488
 Alpha virt. eigenvalues --    0.35364   0.35406   0.44983   0.45630   0.47020
 Alpha virt. eigenvalues --    0.48327   0.49196   0.49716   0.51791   0.52162
 Alpha virt. eigenvalues --    0.54800   0.56533   0.56866   0.58936   0.59565
 Alpha virt. eigenvalues --    0.61063   0.63002   0.63566   0.64316   0.65616
 Alpha virt. eigenvalues --    0.68541   0.69281   0.69513   0.73432   0.76409
 Alpha virt. eigenvalues --    0.76705   0.78869   0.83108   0.84557   0.86907
 Alpha virt. eigenvalues --    0.87251   0.87908   0.87940   0.90684   0.90908
 Alpha virt. eigenvalues --    0.91390   0.91953   0.93716   0.96448   0.97071
 Alpha virt. eigenvalues --    0.98721   0.99977   1.02318   1.02956   1.08473
 Alpha virt. eigenvalues --    1.11803   1.12497   1.14415   1.18170   1.20963
 Alpha virt. eigenvalues --    1.21457   1.27655   1.28197   1.34619   1.37864
 Alpha virt. eigenvalues --    1.43640   1.51294   1.53550   1.55616   1.57333
 Alpha virt. eigenvalues --    1.61075   1.63223   1.63234   1.70102   1.70129
 Alpha virt. eigenvalues --    1.82257   1.84666   1.88925   1.89655   1.90671
 Alpha virt. eigenvalues --    1.93682   1.97432   1.98454   1.99824   2.02124
 Alpha virt. eigenvalues --    2.05902   2.10773   2.15750   2.27231   2.27825
 Alpha virt. eigenvalues --    2.29476   2.31700   2.32381   2.40219   2.41096
 Alpha virt. eigenvalues --    2.47186   2.49485   2.56178   2.57870   2.59224
 Alpha virt. eigenvalues --    2.66273   2.68281   2.69615   2.73376   2.73785
 Alpha virt. eigenvalues --    2.77138   2.78887   2.80020   2.83156   2.91040
 Alpha virt. eigenvalues --    2.92522   2.98749   3.09658   3.15667   3.21573
 Alpha virt. eigenvalues --    3.28229   3.33989   3.41482   3.53972   3.68451
 Alpha virt. eigenvalues --    3.75098   3.85892   4.10757   4.12146   4.76226
 Alpha virt. eigenvalues --    9.95580   9.99407  23.50009  23.89742  23.90019
 Alpha virt. eigenvalues --   24.07990  24.09585  24.22773  25.92479  25.92558
 Alpha virt. eigenvalues --   26.19471  26.26467  26.73012  26.73262 216.05377
 Alpha virt. eigenvalues --  216.09872
  Beta  occ. eigenvalues -- -102.69294-102.69294 -10.63480 -10.63479 -10.58535
  Beta  occ. eigenvalues --  -10.58065 -10.58045 -10.58035  -9.83656  -9.83656
  Beta  occ. eigenvalues --   -7.56154  -7.56154  -7.55490  -7.55490  -7.55471
  Beta  occ. eigenvalues --   -7.55471  -1.03257  -1.00245  -0.93797  -0.84808
  Beta  occ. eigenvalues --   -0.84337  -0.69713  -0.68111  -0.60787  -0.57093
  Beta  occ. eigenvalues --   -0.54243  -0.52411  -0.50160  -0.47950  -0.46214
  Beta  occ. eigenvalues --   -0.45228  -0.40428  -0.39888  -0.38938  -0.32068
  Beta  occ. eigenvalues --   -0.31291
  Beta virt. eigenvalues --   -0.06831  -0.01607   0.00069   0.00375   0.01546
  Beta virt. eigenvalues --    0.01618   0.03379   0.03889   0.05303   0.05848
  Beta virt. eigenvalues --    0.08178   0.08192   0.08600   0.08659   0.08938
  Beta virt. eigenvalues --    0.10139   0.11286   0.11781   0.12015   0.12579
  Beta virt. eigenvalues --    0.12963   0.12978   0.13763   0.13764   0.14770
  Beta virt. eigenvalues --    0.14873   0.15522   0.16932   0.17060   0.17933
  Beta virt. eigenvalues --    0.19564   0.19867   0.20235   0.21324   0.22677
  Beta virt. eigenvalues --    0.23214   0.24170   0.24976   0.25504   0.27148
  Beta virt. eigenvalues --    0.27762   0.28362   0.28894   0.30504   0.32313
  Beta virt. eigenvalues --    0.34892   0.35547   0.35737   0.45120   0.45601
  Beta virt. eigenvalues --    0.47024   0.48325   0.49240   0.49835   0.51768
  Beta virt. eigenvalues --    0.52459   0.55064   0.56716   0.56991   0.57544
  Beta virt. eigenvalues --    0.59049   0.60976   0.63195   0.63568   0.63670
  Beta virt. eigenvalues --    0.64209   0.68616   0.69361   0.70604   0.73954
  Beta virt. eigenvalues --    0.76277   0.76872   0.78091   0.83258   0.84904
  Beta virt. eigenvalues --    0.87000   0.87114   0.87398   0.88026   0.90580
  Beta virt. eigenvalues --    0.90956   0.91729   0.91988   0.92824   0.96922
  Beta virt. eigenvalues --    0.97136   0.98706   0.99882   1.02441   1.03410
  Beta virt. eigenvalues --    1.08454   1.12202   1.12906   1.14849   1.19706
  Beta virt. eigenvalues --    1.21018   1.21586   1.27199   1.28247   1.35557
  Beta virt. eigenvalues --    1.38170   1.45532   1.51949   1.54717   1.55751
  Beta virt. eigenvalues --    1.57379   1.61837   1.63299   1.63409   1.70170
  Beta virt. eigenvalues --    1.70478   1.83760   1.85352   1.88981   1.90500
  Beta virt. eigenvalues --    1.90943   1.93983   1.97643   1.98045   2.00121
  Beta virt. eigenvalues --    2.02571   2.05954   2.10848   2.16071   2.27949
  Beta virt. eigenvalues --    2.28269   2.29510   2.31743   2.32793   2.40367
  Beta virt. eigenvalues --    2.41423   2.47253   2.50168   2.56293   2.58207
  Beta virt. eigenvalues --    2.59320   2.66614   2.68379   2.70187   2.73328
  Beta virt. eigenvalues --    2.73907   2.77103   2.79370   2.80475   2.83226
  Beta virt. eigenvalues --    2.91195   2.92311   3.01462   3.09771   3.15887
  Beta virt. eigenvalues --    3.22415   3.28345   3.34227   3.42121   3.54719
  Beta virt. eigenvalues --    3.68760   3.74962   3.85937   4.10700   4.12706
  Beta virt. eigenvalues --    4.76407   9.95589   9.99415  23.50155  23.89788
  Beta virt. eigenvalues --   23.90300  24.07980  24.09570  24.23446  25.92521
  Beta virt. eigenvalues --   25.92601  26.19507  26.26505  26.73114  26.73359
  Beta virt. eigenvalues --  216.05406 216.09901
          Condensed to atoms (all electrons):
               1          2          3          4          5          6
     1  C   23.155586  -2.904400  -4.399436  -2.727203  -4.399448  -2.904395
     2  C   -2.904400  12.164141  -0.139799  -0.530760  -1.118209  -0.706256
     3  C   -4.399436  -0.139799  10.839378   0.774869   0.543598  -1.118204
     4  C   -2.727203  -0.530760   0.774869   7.629645   0.774875  -0.530770
     5  C   -4.399448  -1.118209   0.543598   0.774875  10.839384  -0.139795
     6  C   -2.904395  -0.706256  -1.118204  -0.530770  -0.139795  12.164137
     7  Cl   0.197367  -0.110682   0.086695   0.168860  -0.148500  -0.869714
     8  H    0.589488  -0.086167  -0.058800  -0.015148  -0.058800  -0.086167
     9  Cl   0.197368  -0.869713  -0.148502   0.168860   0.086695  -0.110681
    10  H   -0.064382  -0.063189   0.382533   0.070810   0.006521  -0.004144
    11  H   -0.064384  -0.004144   0.006521   0.070811   0.382537  -0.063190
               7          8          9         10         11
     1  C    0.197367   0.589488   0.197368  -0.064382  -0.064384
     2  C   -0.110682  -0.086167  -0.869713  -0.063189  -0.004144
     3  C    0.086695  -0.058800  -0.148502   0.382533   0.006521
     4  C    0.168860  -0.015148   0.168860   0.070810   0.070811
     5  C   -0.148500  -0.058800   0.086695   0.006521   0.382537
     6  C   -0.869714  -0.086167  -0.110681  -0.004144  -0.063190
     7  Cl  17.345535   0.012635  -0.023263  -0.002721  -0.001444
     8  H    0.012635   0.472399   0.012635  -0.001388  -0.001388
     9  Cl  -0.023263   0.012635  17.345535  -0.001444  -0.002721
    10  H   -0.002721  -0.001388  -0.001444   0.467890  -0.000088
    11  H   -0.001444  -0.001388  -0.002721  -0.000088   0.467892
          Atomic-Atomic Spin Densities.
               1          2          3          4          5          6
     1  C    0.059116   0.116029  -0.295618   0.375212  -0.295618   0.116029
     2  C    0.116029   0.176882  -0.254823   0.075589  -0.099072   0.026363
     3  C   -0.295618  -0.254823   0.672872  -0.581696   0.564600  -0.099070
     4  C    0.375212   0.075589  -0.581696   1.430019  -0.581695   0.075587
     5  C   -0.295618  -0.099072   0.564600  -0.581695   0.672872  -0.254823
     6  C    0.116029   0.026363  -0.099070   0.075587  -0.254823   0.176883
     7  Cl  -0.051801   0.000308   0.025407  -0.036101   0.073221  -0.022588
     8  H   -0.005775   0.002380   0.005086  -0.009592   0.005086   0.002380
     9  Cl  -0.051800  -0.022587   0.073220  -0.036101   0.025406   0.000308
    10  H    0.000824  -0.008049  -0.001504   0.012861  -0.010953  -0.003507
    11  H    0.000824  -0.003507  -0.010953   0.012862  -0.001505  -0.008049
               7          8          9         10         11
     1  C   -0.051801  -0.005775  -0.051800   0.000824   0.000824
     2  C    0.000308   0.002380  -0.022587  -0.008049  -0.003507
     3  C    0.025407   0.005086   0.073220  -0.001504  -0.010953
     4  C   -0.036101  -0.009592  -0.036101   0.012861   0.012862
     5  C    0.073221   0.005086   0.025406  -0.010953  -0.001505
     6  C   -0.022588   0.002380   0.000308  -0.003507  -0.008049
     7  Cl   0.025647   0.000825   0.001631  -0.000403  -0.001119
     8  H    0.000825   0.002880   0.000825  -0.000769  -0.000769
     9  Cl   0.001631   0.000825   0.025647  -0.001119  -0.000403
    10  H   -0.000403  -0.000769  -0.001119   0.036546   0.000550
    11  H   -0.001119  -0.000769  -0.000403   0.000550   0.036546
 Mulliken charges and spin densities:
               1          2
     1  C   -0.676161  -0.032578
     2  C    0.369177   0.009513
     3  C   -0.768853   0.097520
     4  C    0.145150   0.736945
     5  C   -0.768858   0.097520
     6  C    0.369181   0.009513
     7  Cl   0.345231   0.015028
     8  H    0.220701   0.002557
     9  Cl   0.345231   0.015028
    10  H    0.209601   0.024478
    11  H    0.209599   0.024477
 Sum of Mulliken charges =  -0.00000   1.00000
 Mulliken charges and spin densities with hydrogens summed into heavy atoms:
               1          2
     1  C   -0.455460  -0.030022
     2  C    0.369177   0.009513
     3  C   -0.559252   0.121998
     4  C    0.145150   0.736945
     5  C   -0.559259   0.121997
     6  C    0.369181   0.009513
     7  Cl   0.345231   0.015028
     9  Cl   0.345231   0.015028
 Electronic spatial extent (au):  <R**2>=           1478.9770
 Charge=             -0.0000 electrons
 Dipole moment (field-independent basis, Debye):
    X=             -0.6488    Y=             -0.0000    Z=              0.0000  Tot=              0.6488
 Quadrupole moment (field-independent basis, Debye-Ang):
   XX=            -57.1385   YY=            -59.3878   ZZ=            -62.7644
   XY=              0.0000   XZ=              0.0000   YZ=              0.0000
 Traceless Quadrupole moment (field-independent basis, Debye-Ang):
   XX=              2.6251   YY=              0.3757   ZZ=             -3.0008
   XY=              0.0000   XZ=              0.0000   YZ=              0.0000
 Octapole moment (field-independent basis, Debye-Ang**2):
  XXX=             13.6991  YYY=             -0.0000  ZZZ=              0.0000  XYY=             -5.0846
  XXY=             -0.0000  XXZ=              0.0000  XZZ=              5.9174  YZZ=              0.0000
  YYZ=              0.0000  XYZ=              0.0000
 Hexadecapole moment (field-independent basis, Debye-Ang**3):
 XXXX=           -502.4417 YYYY=          -1348.8316 ZZZZ=            -73.1896 XXXY=              0.0000
 XXXZ=              0.0000 YYYX=              0.0001 YYYZ=              0.0000 ZZZX=              0.0000
 ZZZY=              0.0000 XXYY=           -283.6428 XXZZ=           -102.9076 YYZZ=           -251.5348
 XXYZ=              0.0000 YYXZ=              0.0000 ZZXY=             -0.0001
 N-N= 4.422310068982D+02 E-N=-3.606294688526D+03  KE= 1.147820810000D+03
 Symmetry A'   KE= 1.049527795971D+03
 Symmetry A"   KE= 9.829301402947D+01
 Symmetry A'   SP= 1.000000000000D+00
 Symmetry A"   SP=-4.220834632870D-15
                          Isotropic Fermi Contact Couplings
        Atom                 a.u.       MegaHertz       Gauss      10(-4) cm-1
     1  C(13)             -0.00883      -9.92547      -3.54166      -3.31078
     2  C(13)              0.07288      81.92841      29.23410      27.32838
     3  C(13)              0.00934      10.50502       3.74845       3.50410
     4  C(13)              0.42163     473.99311     169.13253     158.10708
     5  C(13)              0.00935      10.50565       3.74868       3.50431
     6  C(13)              0.07288      81.92844      29.23411      27.32839
     7  Cl(35)             0.00362       1.58863       0.56686       0.52991
     8  H(1)               0.00054       2.41379       0.86130       0.80515
     9  Cl(35)             0.00362       1.58861       0.56686       0.52990
    10  H(1)               0.01235      55.19201      19.69388      18.41007
    11  H(1)               0.01235      55.19139      19.69366      18.40987
 --------------------------------------------------------
       Center         ----  Spin Dipole Couplings  ----
                      3XX-RR        3YY-RR        3ZZ-RR
 --------------------------------------------------------
     1   Atom        0.033729      0.019244     -0.052974
     2   Atom        0.037060     -0.034669     -0.002391
     3   Atom        0.032639      0.064851     -0.097490
     4   Atom        0.973554     -0.572385     -0.401169
     5   Atom        0.032639      0.064850     -0.097490
     6   Atom        0.037060     -0.034669     -0.002391
     7   Atom        0.036144     -0.009407     -0.026738
     8   Atom        0.001314      0.001206     -0.002520
     9   Atom        0.036144     -0.009406     -0.026738
    10   Atom       -0.009199      0.020966     -0.011767
    11   Atom       -0.009199      0.020966     -0.011767
 --------------------------------------------------------
                        XY            XZ            YZ
 --------------------------------------------------------
     1   Atom       -0.000000      0.000000      0.000000
     2   Atom        0.006353      0.000000      0.000000
     3   Atom       -0.050792      0.000000      0.000000
     4   Atom       -0.000000      0.000000      0.000000
     5   Atom        0.050792      0.000000      0.000000
     6   Atom       -0.006353      0.000000      0.000000
     7   Atom        0.070853      0.000000      0.000000
     8   Atom       -0.000000      0.000000      0.000000
     9   Atom       -0.070853      0.000000      0.000000
    10   Atom       -0.006058      0.000000      0.000000
    11   Atom        0.006058      0.000000      0.000000
 --------------------------------------------------------


 ---------------------------------------------------------------------------------
              Anisotropic Spin Dipole Couplings in Principal Axis System
 ---------------------------------------------------------------------------------

       Atom             a.u.   MegaHertz   Gauss  10(-4) cm-1        Axes

              Baa    -0.0530    -7.109    -2.537    -2.371  0.0000  0.0000  1.0000
     1 C(13)  Bbb     0.0192     2.582     0.921     0.861  0.0000  1.0000  0.0000
              Bcc     0.0337     4.526     1.615     1.510  1.0000 -0.0000 -0.0000
 
              Baa    -0.0352    -4.727    -1.687    -1.577 -0.0876  0.9962 -0.0000
     2 C(13)  Bbb    -0.0024    -0.321    -0.114    -0.107  0.0000  0.0000  1.0000
              Bcc     0.0376     5.048     1.801     1.684  0.9962  0.0876  0.0000
 
              Baa    -0.0975   -13.082    -4.668    -4.364  0.0000  0.0000  1.0000
     3 C(13)  Bbb    -0.0045    -0.609    -0.217    -0.203  0.8069  0.5907  0.0000
              Bcc     0.1020    13.691     4.885     4.567 -0.5907  0.8069  0.0000
 
              Baa    -0.5724   -76.809   -27.407   -25.621  0.0000  1.0000  0.0000
     4 C(13)  Bbb    -0.4012   -53.833   -19.209   -17.957  0.0000  0.0000  1.0000
              Bcc     0.9736   130.642    46.616    43.577  1.0000 -0.0000 -0.0000
 
              Baa    -0.0975   -13.082    -4.668    -4.364  0.0000  0.0000  1.0000
     5 C(13)  Bbb    -0.0045    -0.609    -0.217    -0.203  0.8069 -0.5907 -0.0000
              Bcc     0.1020    13.691     4.885     4.567  0.5907  0.8069  0.0000
 
              Baa    -0.0352    -4.727    -1.687    -1.577  0.0875  0.9962  0.0000
     6 C(13)  Bbb    -0.0024    -0.321    -0.114    -0.107  0.0000  0.0000  1.0000
              Bcc     0.0376     5.048     1.801     1.684  0.9962 -0.0875 -0.0000
 
              Baa    -0.0611    -3.195    -1.140    -1.066 -0.5891  0.8081 -0.0000
     7 Cl(35) Bbb    -0.0267    -1.399    -0.499    -0.467  0.0000  0.0000  1.0000
              Bcc     0.0878     4.595     1.640     1.533  0.8081  0.5891  0.0000
 
              Baa    -0.0025    -1.344    -0.480    -0.448  0.0000  0.0000  1.0000
     8 H(1)   Bbb     0.0012     0.643     0.230     0.215  0.0000  1.0000  0.0000
              Bcc     0.0013     0.701     0.250     0.234  1.0000 -0.0000 -0.0000
 
              Baa    -0.0611    -3.195    -1.140    -1.066  0.5891  0.8081  0.0000
     9 Cl(35) Bbb    -0.0267    -1.399    -0.499    -0.467  0.0000  0.0000  1.0000
              Bcc     0.0878     4.595     1.640     1.533  0.8081 -0.5891 -0.0000
 
              Baa    -0.0118    -6.278    -2.240    -2.094  0.0000  0.0000  1.0000
    10 H(1)   Bbb    -0.0104    -5.533    -1.974    -1.846  0.9818  0.1898  0.0000
              Bcc     0.0221    11.811     4.215     3.940 -0.1898  0.9818  0.0000
 
              Baa    -0.0118    -6.279    -2.240    -2.094  0.0000  0.0000  1.0000
    11 H(1)   Bbb    -0.0104    -5.533    -1.974    -1.846  0.9818 -0.1898 -0.0000
              Bcc     0.0221    11.812     4.215     3.940  0.1898  0.9818  0.0000
 

 ---------------------------------------------------------------------------------

 Calling FoFJK, ICntrl=      2127 FMM=F ISym2X=1 I1Cent= 0 IOpClX= 1 NMat=1 NMatS=1 NMatT=0.
 ***** Axes restored to original set *****
 -------------------------------------------------------------------
 Center     Atomic                   Forces (Hartrees/Bohr)
 Number     Number              X              Y              Z
 -------------------------------------------------------------------
      1        6          -0.002424325    0.001312271   -0.000000000
      2        6           0.003441254   -0.035129385   -0.000000000
      3        6          -0.009046581    0.005115736   -0.000000000
      4        6           0.007833817   -0.004240027   -0.000000000
      5        6          -0.009230315    0.004783013   -0.000000000
      6        6           0.031294398    0.016327438   -0.000000000
      7       17          -0.019992354   -0.011233742   -0.000000000
      8        1           0.011415719   -0.006179241   -0.000000000
      9       17          -0.001526008    0.022881458   -0.000000000
     10        1          -0.009512192   -0.003520271   -0.000000000
     11        1          -0.002253413    0.009882750   -0.000000000
 -------------------------------------------------------------------
 Cartesian Forces:  Max     0.035129385 RMS     0.011309392

 GradGradGradGradGradGradGradGradGradGradGradGradGradGradGradGradGradGrad
 Berny optimization.
 FormGI is forming the generalized inverse of G from B-inverse, IUseBI=4.
 Internal  Forces:  Max     0.022922181 RMS     0.007016616
 Search for a local minimum.
 Step number   1 out of a maximum of   57
 All quantities printed in internal units (Hartrees-Bohrs-Radians)
 Mixed Optimization -- RFO/linear search
 Second derivative matrix not updated -- first step.
 ITU=  0
     Eigenvalues ---    0.01942   0.01948   0.01972   0.01993   0.01999
     Eigenvalues ---    0.02080   0.02129   0.02400   0.16000   0.16000
     Eigenvalues ---    0.16000   0.23274   0.23491   0.23503   0.25000
     Eigenvalues ---    0.25000   0.33526   0.34032   0.34033   0.36825
     Eigenvalues ---    0.36825   0.40502   0.42163   0.43371   0.44331
     Eigenvalues ---    0.49178   0.50555
 RFO step:  Lambda=-6.26198516D-03 EMin= 1.94224814D-02
 Linear search not attempted -- first point.
 Iteration  1 RMS(Cart)=  0.02132752 RMS(Int)=  0.00017562
 Iteration  2 RMS(Cart)=  0.00027500 RMS(Int)=  0.00003085
 Iteration  3 RMS(Cart)=  0.00000005 RMS(Int)=  0.00003085
 ClnCor:  largest displacement from symmetrization is 3.50D-09 for atom     8.
 Variable       Old X    -DE/DX   Delta X   Delta X   Delta X     New X
                                 (Linear)    (Quad)   (Total)
    R1        2.65846  -0.01336   0.00000  -0.03028  -0.03032   2.62814
    R2        2.65846  -0.01336   0.00000  -0.03028  -0.03032   2.62814
    R3        2.08137  -0.01298   0.00000  -0.03801  -0.03801   2.04337
    R4        2.67216  -0.01266   0.00000  -0.02879  -0.02879   2.64336
    R5        3.19811   0.02292   0.00000   0.06121   0.06121   3.25932
    R6        2.58912  -0.00248   0.00000  -0.00419  -0.00414   2.58498
    R7        2.07277  -0.01000   0.00000  -0.02886  -0.02886   2.04391
    R8        2.58912  -0.00248   0.00000  -0.00419  -0.00414   2.58498
    R9        2.67216  -0.01266   0.00000  -0.02879  -0.02879   2.64336
   R10        2.07275  -0.01000   0.00000  -0.02884  -0.02884   2.04391
   R11        3.19811   0.02292   0.00000   0.06121   0.06121   3.25932
    A1        2.10252  -0.00064   0.00000  -0.00641  -0.00650   2.09603
    A2        2.09033   0.00032   0.00000   0.00320   0.00325   2.09358
    A3        2.09033   0.00032   0.00000   0.00320   0.00325   2.09358
    A4        2.10432   0.00174   0.00000   0.00485   0.00480   2.10911
    A5        2.08906  -0.00196   0.00000  -0.00668  -0.00665   2.08241
    A6        2.08980   0.00022   0.00000   0.00183   0.00186   2.09166
    A7        1.99450   0.00418   0.00000   0.01907   0.01911   2.01361
    A8        2.13843  -0.00383   0.00000  -0.02002  -0.02004   2.11839
    A9        2.15026  -0.00035   0.00000   0.00095   0.00093   2.15119
   A10        2.26621  -0.01121   0.00000  -0.04143  -0.04132   2.22489
   A11        1.99450   0.00418   0.00000   0.01907   0.01911   2.01361
   A12        2.15026  -0.00035   0.00000   0.00095   0.00093   2.15119
   A13        2.13843  -0.00383   0.00000  -0.02002  -0.02004   2.11839
   A14        2.10432   0.00174   0.00000   0.00485   0.00480   2.10911
   A15        2.08906  -0.00196   0.00000  -0.00668  -0.00665   2.08241
   A16        2.08980   0.00022   0.00000   0.00183   0.00186   2.09166
    D1        0.00000  -0.00000   0.00000  -0.00000   0.00000   0.00000
    D2        3.14159   0.00000   0.00000  -0.00000   0.00000   3.14159
    D3        3.14159   0.00000   0.00000   0.00000   0.00000   3.14159
    D4        0.00000   0.00000   0.00000   0.00000   0.00000   0.00000
    D5        0.00000   0.00000   0.00000   0.00000   0.00000   0.00000
    D6        3.14159   0.00000   0.00000   0.00000   0.00000   3.14159
    D7        3.14159  -0.00000   0.00000  -0.00000   0.00000   3.14159
    D8        0.00000   0.00000   0.00000  -0.00000   0.00000   0.00000
    D9        0.00000  -0.00000   0.00000   0.00000   0.00000   0.00000
   D10        3.14159  -0.00000   0.00000  -0.00000   0.00000   3.14159
   D11        3.14159  -0.00000   0.00000   0.00000   0.00000   3.14159
   D12        0.00000  -0.00000   0.00000  -0.00000   0.00000   0.00000
   D13        0.00000   0.00000   0.00000  -0.00000   0.00000   0.00000
   D14        3.14159   0.00000   0.00000   0.00000   0.00000   3.14159
   D15        0.00000   0.00000   0.00000   0.00000   0.00000   0.00000
   D16        3.14159  -0.00000   0.00000  -0.00000   0.00000   3.14159
   D17        0.00000  -0.00000   0.00000  -0.00000   0.00000   0.00000
   D18        3.14159  -0.00000   0.00000  -0.00000   0.00000   3.14159
   D19        3.14159  -0.00000   0.00000   0.00000   0.00000   3.14159
   D20        0.00000  -0.00000   0.00000  -0.00000   0.00000   0.00000
         Item               Value     Threshold  Converged?
 Maximum Force            0.022922     0.000450     NO 
 RMS     Force            0.007017     0.000300     NO 
 Maximum Displacement     0.067045     0.001800     NO 
 RMS     Displacement     0.021346     0.001200     NO 
 Predicted change in Energy=-3.185708D-03
 GradGradGradGradGradGradGradGradGradGradGradGradGradGradGradGradGradGrad

                          Input orientation:                          
 ---------------------------------------------------------------------
 Center     Atomic      Atomic             Coordinates (Angstroms)
 Number     Number       Type             X           Y           Z
 ---------------------------------------------------------------------
      1          6           0       -3.193912    0.191112    0.000000
      2          6           0       -2.009630    0.920266    0.000000
      3          6           0       -0.769282    0.273580    0.000000
      4          6           0       -0.820956   -1.093354    0.000000
      5          6           0       -1.937192   -1.884048    0.000000
      6          6           0       -3.156853   -1.199146    0.000000
      7         17           0       -4.637729   -2.083338    0.000000
      8          1           0       -4.144841    0.705844    0.000000
      9         17           0       -2.079055    2.643625    0.000000
     10          1           0        0.156955    0.832078    0.000000
     11          1           0       -1.898345   -2.964940    0.000000
 ---------------------------------------------------------------------
                    Distance matrix (angstroms):
                    1          2          3          4          5
     1  C    0.000000
     2  C    1.390752   0.000000
     3  C    2.426032   1.398808   0.000000
     4  C    2.698290   2.338292   1.367910   0.000000
     5  C    2.426032   2.805249   2.453441   1.367910   0.000000
     6  C    1.390752   2.409985   2.805249   2.338292   1.398808
     7  Cl   2.694017   3.991057   4.529894   3.943072   2.707880
     8  H    1.081303   2.145951   3.403124   3.779593   3.403124
     9  Cl   2.694017   1.724757   2.707881   3.943073   4.529895
    10  H    3.411619   2.168379   1.081589   2.159537   3.429693
    11  H    3.411620   3.886799   3.429693   2.159537   1.081590
                    6          7          8          9         10
     6  C    0.000000
     7  Cl   1.724757   0.000000
     8  H    2.145951   2.832397   0.000000
     9  Cl   3.991058   5.375034   2.832396   0.000000
    10  H    3.886798   5.611474   4.303648   2.877750   0.000000
    11  H    2.168379   2.877750   4.303649   5.611475   4.317592
                   11
    11  H    0.000000
 Stoichiometry    C6H3Cl2(2)
 Framework group  CS[SG(C6H3Cl2)]
 Deg. of freedom    19
 Full point group                 CS      NOp   2
 Largest Abelian subgroup         CS      NOp   2
 Largest concise Abelian subgroup C1      NOp   1
                         Standard orientation:                         
 ---------------------------------------------------------------------
 Center     Atomic      Atomic             Coordinates (Angstroms)
 Number     Number       Type             X           Y           Z
 ---------------------------------------------------------------------
      1          6           0        0.650438   -0.000000    0.000000
      2          6           0       -0.043955   -1.204993    0.000000
      3          6           0       -1.442595   -1.226720    0.000000
      4          6           0       -2.047852    0.000000    0.000000
      5          6           0       -1.442595    1.226721    0.000000
      6          6           0       -0.043955    1.204993    0.000000
      7         17           0        0.837469    2.687517    0.000000
      8          1           0        1.731741   -0.000000    0.000000
      9         17           0        0.837469   -2.687517    0.000000
     10          1           0       -1.991294   -2.158796    0.000000
     11          1           0       -1.991294    2.158797    0.000000
 ---------------------------------------------------------------------
 Rotational constants (GHZ):           3.0562913           0.8631572           0.6730692
 Standard basis: 6-311++G(d,p) (5D, 7F)
 There are   166 symmetry adapted cartesian basis functions of A'  symmetry.
 There are    55 symmetry adapted cartesian basis functions of A"  symmetry.
 There are   158 symmetry adapted basis functions of A'  symmetry.
 There are    55 symmetry adapted basis functions of A"  symmetry.
   213 basis functions,   349 primitive gaussians,   221 cartesian basis functions
    37 alpha electrons       36 beta electrons
       nuclear repulsion energy       441.9016204179 Hartrees.
 NAtoms=   11 NActive=   11 NUniq=   11 SFac= 1.00D+00 NAtFMM=   60 NAOKFM=F Big=F
 Integral buffers will be    131072 words long.
 Raffenetti 2 integral format.
 Two-electron integral symmetry is turned on.
 One-electron integrals computed using PRISM.
 NBasis=   213 RedAO= T EigKep=  1.61D-06  NBF=   158    55
 NBsUse=   213 1.00D-06 EigRej= -1.00D+00 NBFU=   158    55
 Initial guess from the checkpoint file:  "frequency_chks/13_ClBzNeutralRadical_Freq.chk"
 B after Tr=     0.000000    0.000000    0.000000
         Rot=    1.000000    0.000000    0.000000    0.000000 Ang=   0.00 deg.
 Initial guess orbital symmetries:
 Alpha Orbitals:
       Occupied  (A') (A') (A') (A') (A') (A') (A') (A') (A') (A')
                 (A') (A') (A") (A") (A') (A') (A') (A') (A') (A')
                 (A') (A') (A') (A') (A') (A') (A') (A") (A') (A')
                 (A") (A') (A") (A') (A") (A') (A")
       Virtual   (A") (A") (A') (A') (A') (A') (A') (A") (A') (A')
                 (A') (A") (A") (A') (A') (A') (A") (A") (A') (A')
                 (A') (A") (A') (A") (A') (A') (A') (A') (A") (A")
                 (A') (A') (A') (A') (A') (A') (A') (A') (A') (A')
                 (A') (A') (A') (A') (A') (A') (A') (A') (A') (A")
                 (A") (A') (A') (A') (A') (A") (A') (A') (A") (A')
                 (A") (A") (A") (A') (A') (A') (A') (A") (A') (A')
                 (A') (A') (A") (A') (A') (A') (A') (A") (A') (A")
                 (A') (A") (A') (A') (A') (A') (A') (A') (A") (A')
                 (A") (A") (A') (A") (A') (A') (A') (A') (A") (A")
                 (A') (A') (A') (A') (A') (A") (A") (A") (A') (A')
                 (A') (A') (A") (A') (A') (A") (A") (A') (A") (A')
                 (A') (A') (A") (A') (A') (A") (A") (A") (A') (A')
                 (A') (A') (A') (A') (A') (A') (A") (A') (A') (A')
                 (A') (A') (A") (A") (A") (A") (A') (A") (A') (A')
                 (A') (A') (A') (A') (A') (A') (A') (A') (A') (A')
                 (A') (A') (A') (A') (A') (A') (A') (A') (A") (A")
                 (A') (A') (A') (A') (A') (A')
 Beta  Orbitals:
       Occupied  (A') (A') (A') (A') (A') (A') (A') (A') (A') (A')
                 (A') (A') (A") (A") (A') (A') (A') (A') (A') (A')
                 (A') (A') (A') (A') (A') (A') (A') (A") (A') (A')
                 (A") (A') (A") (A') (A") (A")
       Virtual   (A') (A") (A') (A") (A') (A') (A') (A') (A") (A')
                 (A") (A') (A") (A') (A') (A') (A') (A") (A") (A')
                 (A') (A') (A') (A") (A") (A') (A') (A') (A') (A")
                 (A') (A") (A') (A') (A') (A') (A') (A') (A') (A')
                 (A') (A') (A') (A') (A') (A') (A') (A') (A') (A')
                 (A") (A") (A') (A') (A') (A') (A") (A') (A') (A')
                 (A") (A") (A") (A') (A") (A') (A') (A") (A') (A')
                 (A') (A') (A') (A") (A') (A') (A') (A') (A") (A')
                 (A") (A') (A") (A') (A') (A') (A') (A') (A') (A")
                 (A') (A") (A") (A') (A") (A') (A') (A') (A') (A")
                 (A") (A') (A') (A') (A') (A') (A") (A") (A") (A')
                 (A') (A') (A') (A") (A') (A') (A") (A") (A') (A")
                 (A') (A') (A') (A") (A') (A') (A") (A") (A") (A')
                 (A') (A') (A') (A') (A') (A') (A') (A") (A') (A')
                 (A') (A') (A') (A") (A") (A") (A") (A') (A") (A')
                 (A') (A') (A') (A') (A') (A') (A') (A') (A') (A')
                 (A') (A') (A') (A') (A') (A') (A') (A') (A') (A")
                 (A") (A') (A') (A') (A') (A') (A')
 Initial guess <Sx>= 0.0000 <Sy>= 0.0000 <Sz>= 0.5000 <S**2>= 0.7625 S= 0.5062
 ExpMin= 3.60D-02 ExpMax= 1.06D+05 ExpMxC= 3.62D+03 IAcc=3 IRadAn=         5 AccDes= 0.00D+00
 Harris functional with IExCor= 1009 and IRadAn=       5 diagonalized for initial guess.
 HarFok:  IExCor= 1009 AccDes= 0.00D+00 IRadAn=         5 IDoV= 1 UseB2=F ITyADJ=14
 ICtDFT=  3500011 ScaDFX=  1.000000  1.000000  1.000000  1.000000
 FoFCou: FMM=F IPFlag=           0 FMFlag=      100000 FMFlg1=           0
         NFxFlg=           0 DoJE=T BraDBF=F KetDBF=T FulRan=T
         wScrn=  0.000000 ICntrl=       500 IOpCl=  0 I1Cent=   200000004 NGrid=           0
         NMat0=    1 NMatS0=      1 NMatT0=    0 NMatD0=    1 NMtDS0=    0 NMtDT0=    0
 Petite list used in FoFCou.
 Keep R1 and R2 ints in memory in symmetry-blocked form, NReq=411615841.
 Requested convergence on RMS density matrix=1.00D-08 within 128 cycles.
 Requested convergence on MAX density matrix=1.00D-06.
 Requested convergence on             energy=1.00D-06.
 No special actions if energy rises.
 SCF Done:  E(UM062X) =  -1150.71247585     A.U. after   16 cycles
            NFock= 16  Conv=0.38D-08     -V/T= 2.0024
 <Sx>= 0.0000 <Sy>= 0.0000 <Sz>= 0.5000 <S**2>= 0.7622 S= 0.5061
 <L.S>=  0.00000000000    
 Annihilation of the first spin contaminant:
 S**2 before annihilation     0.7622,   after     0.7501
 Calling FoFJK, ICntrl=      2127 FMM=F ISym2X=1 I1Cent= 0 IOpClX= 1 NMat=1 NMatS=1 NMatT=0.
 ***** Axes restored to original set *****
 -------------------------------------------------------------------
 Center     Atomic                   Forces (Hartrees/Bohr)
 Number     Number              X              Y              Z
 -------------------------------------------------------------------
      1        6          -0.004105450    0.002222269   -0.000000000
      2        6           0.002707487   -0.010678479   -0.000000000
      3        6          -0.002388525    0.003586946   -0.000000000
      4        6           0.003438610   -0.001861459   -0.000000000
      5        6          -0.004309230    0.000038635   -0.000000000
      6        6           0.010421226    0.003571878   -0.000000000
      7       17          -0.005276600   -0.003269440   -0.000000000
      8        1          -0.000332124    0.000179762   -0.000000000
      9       17          -0.000147783    0.006205598   -0.000000000
     10        1           0.000347188    0.000650485   -0.000000000
     11        1          -0.000354799   -0.000646195   -0.000000000
 -------------------------------------------------------------------
 Cartesian Forces:  Max     0.010678479 RMS     0.003460767

 GradGradGradGradGradGradGradGradGradGradGradGradGradGradGradGradGradGrad
 Berny optimization.
 Using GEDIIS/GDIIS optimizer.
 FormGI is forming the generalized inverse of G from B-inverse, IUseBI=4.
 Internal  Forces:  Max     0.006206554 RMS     0.001688577
 Search for a local minimum.
 Step number   2 out of a maximum of   57
 All quantities printed in internal units (Hartrees-Bohrs-Radians)
 Mixed Optimization -- RFO/linear search
 Update second derivatives using D2CorX and points    1    2
 DE= -3.63D-03 DEPred=-3.19D-03 R= 1.14D+00
 TightC=F SS=  1.41D+00  RLast= 1.33D-01 DXNew= 5.0454D-01 3.9777D-01
 Trust test= 1.14D+00 RLast= 1.33D-01 DXMaxT set to 3.98D-01
 ITU=  1  0
 Use linear search instead of GDIIS.
     Eigenvalues ---    0.01942   0.01948   0.01972   0.01992   0.01999
     Eigenvalues ---    0.02085   0.02133   0.02393   0.15896   0.16000
     Eigenvalues ---    0.16000   0.20785   0.23505   0.23910   0.25000
     Eigenvalues ---    0.25049   0.31495   0.33708   0.34032   0.35642
     Eigenvalues ---    0.36825   0.40422   0.42503   0.43157   0.44328
     Eigenvalues ---    0.50515   0.51407
 RFO step:  Lambda=-3.49699880D-04 EMin= 1.94207165D-02
 Quartic linear search produced a step of  0.19255.
 Iteration  1 RMS(Cart)=  0.00618066 RMS(Int)=  0.00002928
 Iteration  2 RMS(Cart)=  0.00004195 RMS(Int)=  0.00000441
 Iteration  3 RMS(Cart)=  0.00000000 RMS(Int)=  0.00000441
 ClnCor:  largest displacement from symmetrization is 4.51D-10 for atom     8.
 Variable       Old X    -DE/DX   Delta X   Delta X   Delta X     New X
                                 (Linear)    (Quad)   (Total)
    R1        2.62814  -0.00013  -0.00584   0.00371  -0.00213   2.62601
    R2        2.62814  -0.00013  -0.00584   0.00371  -0.00213   2.62601
    R3        2.04337   0.00038  -0.00732   0.00663  -0.00069   2.04267
    R4        2.64336  -0.00184  -0.00554  -0.00107  -0.00661   2.63675
    R5        3.25932   0.00621   0.01179   0.01158   0.02337   3.28269
    R6        2.58498   0.00234  -0.00080   0.00617   0.00538   2.59035
    R7        2.04391   0.00063  -0.00556   0.00623   0.00067   2.04458
    R8        2.58498   0.00234  -0.00080   0.00617   0.00538   2.59035
    R9        2.64336  -0.00184  -0.00554  -0.00107  -0.00661   2.63675
   R10        2.04391   0.00063  -0.00555   0.00622   0.00067   2.04458
   R11        3.25932   0.00621   0.01179   0.01158   0.02337   3.28269
    A1        2.09603  -0.00289  -0.00125  -0.01508  -0.01635   2.07968
    A2        2.09358   0.00145   0.00063   0.00754   0.00817   2.10175
    A3        2.09358   0.00145   0.00063   0.00754   0.00817   2.10175
    A4        2.10911   0.00245   0.00092   0.01095   0.01186   2.12098
    A5        2.08241  -0.00106  -0.00128  -0.00409  -0.00536   2.07705
    A6        2.09166  -0.00139   0.00036  -0.00686  -0.00650   2.08516
    A7        2.01361   0.00029   0.00368  -0.00059   0.00310   2.01671
    A8        2.11839  -0.00053  -0.00386  -0.00110  -0.00496   2.11343
    A9        2.15119   0.00024   0.00018   0.00168   0.00186   2.15304
   A10        2.22489  -0.00260  -0.00796  -0.00564  -0.01358   2.21132
   A11        2.01361   0.00029   0.00368  -0.00059   0.00310   2.01671
   A12        2.15119   0.00024   0.00018   0.00168   0.00186   2.15305
   A13        2.11839  -0.00053  -0.00386  -0.00110  -0.00496   2.11343
   A14        2.10911   0.00245   0.00092   0.01095   0.01186   2.12098
   A15        2.08241  -0.00106  -0.00128  -0.00409  -0.00536   2.07705
   A16        2.09166  -0.00139   0.00036  -0.00686  -0.00650   2.08516
    D1        0.00000   0.00000   0.00000   0.00000   0.00000   0.00000
    D2        3.14159   0.00000   0.00000   0.00000   0.00000   3.14159
    D3        3.14159   0.00000   0.00000  -0.00000   0.00000   3.14159
    D4        0.00000   0.00000   0.00000  -0.00000   0.00000   0.00000
    D5        0.00000  -0.00000   0.00000  -0.00000   0.00000   0.00000
    D6        3.14159  -0.00000   0.00000  -0.00000   0.00000   3.14159
    D7        3.14159  -0.00000   0.00000  -0.00000   0.00000   3.14159
    D8        0.00000  -0.00000   0.00000  -0.00000   0.00000   0.00000
    D9        0.00000   0.00000   0.00000   0.00000   0.00000   0.00000
   D10        3.14159   0.00000   0.00000   0.00000   0.00000   3.14159
   D11        3.14159  -0.00000   0.00000   0.00000   0.00000   3.14159
   D12        0.00000   0.00000   0.00000   0.00000   0.00000   0.00000
   D13        0.00000  -0.00000   0.00000  -0.00000   0.00000   0.00000
   D14        3.14159  -0.00000   0.00000  -0.00000   0.00000   3.14159
   D15        0.00000   0.00000   0.00000   0.00000   0.00000   0.00000
   D16        3.14159   0.00000   0.00000   0.00000   0.00000   3.14159
   D17        0.00000   0.00000   0.00000   0.00000   0.00000   0.00000
   D18        3.14159   0.00000   0.00000   0.00000   0.00000   3.14159
   D19        3.14159  -0.00000   0.00000   0.00000   0.00000   3.14159
   D20        0.00000   0.00000   0.00000   0.00000   0.00000   0.00000
         Item               Value     Threshold  Converged?
 Maximum Force            0.006207     0.000450     NO 
 RMS     Force            0.001689     0.000300     NO 
 Maximum Displacement     0.017006     0.001800     NO 
 RMS     Displacement     0.006184     0.001200     NO 
 Predicted change in Energy=-2.704652D-04
 GradGradGradGradGradGradGradGradGradGradGradGradGradGradGradGradGradGrad

                          Input orientation:                          
 ---------------------------------------------------------------------
 Center     Atomic      Atomic             Coordinates (Angstroms)
 Number     Number       Type             X           Y           Z
 ---------------------------------------------------------------------
      1          6           0       -3.198330    0.193503    0.000000
      2          6           0       -2.009092    0.912370    0.000000
      3          6           0       -0.769475    0.271873    0.000000
      4          6           0       -0.811957   -1.098225    0.000000
      5          6           0       -1.935868   -1.882952    0.000000
      6          6           0       -3.149949   -1.195279    0.000000
      7         17           0       -4.638933   -2.089996    0.000000
      8          1           0       -4.148937    0.708060    0.000000
      9         17           0       -2.074139    2.648274    0.000000
     10          1           0        0.152200    0.838545    0.000000
     11          1           0       -1.906360   -2.964494    0.000000
 ---------------------------------------------------------------------
                    Distance matrix (angstroms):
                    1          2          3          4          5
     1  C    0.000000
     2  C    1.389624   0.000000
     3  C    2.430119   1.395309   0.000000
     4  C    2.713547   2.340005   1.370756   0.000000
     5  C    2.430119   2.796281   2.450253   1.370756   0.000000
     6  C    1.389624   2.396610   2.796281   2.340005   1.395309
     7  Cl   2.699946   3.991274   4.533336   3.953398   2.710983
     8  H    1.080936   2.149576   3.407495   3.794483   3.407495
     9  Cl   2.699946   1.737122   2.710983   3.953398   4.533336
    10  H    3.412057   2.162553   1.081944   2.163488   3.430244
    11  H    3.412057   3.878225   3.430245   2.163488   1.081945
                    6          7          8          9         10
     6  C    0.000000
     7  Cl   1.737122   0.000000
     8  H    2.149576   2.840637   0.000000
     9  Cl   3.991274   5.387892   2.840637   0.000000
    10  H    3.878225   5.615275   4.303116   2.869094   0.000000
    11  H    2.162553   2.869094   4.303116   5.615276   4.324440
                   11
    11  H    0.000000
 Stoichiometry    C6H3Cl2(2)
 Framework group  CS[SG(C6H3Cl2)]
 Deg. of freedom    19
 Full point group                 CS      NOp   2
 Largest Abelian subgroup         CS      NOp   2
 Largest concise Abelian subgroup C1      NOp   1
                         Standard orientation:                         
 ---------------------------------------------------------------------
 Center     Atomic      Atomic             Coordinates (Angstroms)
 Number     Number       Type             X           Y           Z
 ---------------------------------------------------------------------
      1          6           0        0.657412    0.000000    0.000000
      2          6           0       -0.046237   -1.198305    0.000000
      3          6           0       -1.441289   -1.225127    0.000000
      4          6           0       -2.056135    0.000000    0.000000
      5          6           0       -1.441289    1.225127    0.000000
      6          6           0       -0.046237    1.198305    0.000000
      7         17           0        0.837308    2.693946    0.000000
      8          1           0        1.738348    0.000000    0.000000
      9         17           0        0.837308   -2.693946    0.000000
     10          1           0       -1.982084   -2.162220    0.000000
     11          1           0       -1.982084    2.162220    0.000000
 ---------------------------------------------------------------------
 Rotational constants (GHZ):           3.0495828           0.8602628           0.6709837
 Standard basis: 6-311++G(d,p) (5D, 7F)
 There are   166 symmetry adapted cartesian basis functions of A'  symmetry.
 There are    55 symmetry adapted cartesian basis functions of A"  symmetry.
 There are   158 symmetry adapted basis functions of A'  symmetry.
 There are    55 symmetry adapted basis functions of A"  symmetry.
   213 basis functions,   349 primitive gaussians,   221 cartesian basis functions
    37 alpha electrons       36 beta electrons
       nuclear repulsion energy       441.2080226063 Hartrees.
 NAtoms=   11 NActive=   11 NUniq=   11 SFac= 1.00D+00 NAtFMM=   60 NAOKFM=F Big=F
 Integral buffers will be    131072 words long.
 Raffenetti 2 integral format.
 Two-electron integral symmetry is turned on.
 One-electron integrals computed using PRISM.
 NBasis=   213 RedAO= T EigKep=  1.62D-06  NBF=   158    55
 NBsUse=   213 1.00D-06 EigRej= -1.00D+00 NBFU=   158    55
 Initial guess from the checkpoint file:  "frequency_chks/13_ClBzNeutralRadical_Freq.chk"
 B after Tr=    -0.000000    0.000000    0.000000
         Rot=    1.000000   -0.000000   -0.000000   -0.000000 Ang=  -0.00 deg.
 Initial guess orbital symmetries:
 Alpha Orbitals:
       Occupied  (A') (A') (A') (A') (A') (A') (A') (A') (A') (A')
                 (A') (A') (A") (A") (A') (A') (A') (A') (A') (A')
                 (A') (A') (A') (A') (A') (A') (A') (A") (A') (A')
                 (A") (A') (A") (A') (A") (A') (A")
       Virtual   (A") (A") (A') (A') (A') (A') (A') (A") (A') (A')
                 (A') (A") (A") (A') (A') (A') (A") (A") (A') (A')
                 (A') (A") (A') (A') (A") (A') (A') (A') (A") (A")
                 (A') (A') (A') (A') (A') (A') (A') (A') (A') (A')
                 (A') (A') (A') (A') (A') (A') (A') (A') (A') (A")
                 (A") (A') (A') (A') (A') (A") (A') (A') (A") (A')
                 (A") (A") (A") (A') (A') (A') (A') (A") (A') (A')
                 (A') (A') (A") (A') (A') (A') (A') (A") (A') (A")
                 (A') (A") (A') (A') (A') (A') (A') (A') (A") (A')
                 (A") (A") (A') (A") (A') (A') (A') (A') (A") (A")
                 (A') (A') (A') (A') (A') (A") (A") (A") (A') (A')
                 (A') (A') (A') (A") (A') (A") (A") (A') (A") (A')
                 (A') (A') (A") (A') (A') (A") (A") (A") (A') (A')
                 (A') (A') (A') (A') (A') (A') (A") (A') (A') (A')
                 (A') (A') (A") (A") (A") (A") (A') (A") (A') (A')
                 (A') (A') (A') (A') (A') (A') (A') (A') (A') (A')
                 (A') (A') (A') (A') (A') (A') (A') (A') (A") (A")
                 (A') (A') (A') (A') (A') (A')
 Beta  Orbitals:
       Occupied  (A') (A') (A') (A') (A') (A') (A') (A') (A') (A')
                 (A') (A') (A") (A") (A') (A') (A') (A') (A') (A')
                 (A') (A') (A') (A') (A') (A') (A') (A") (A') (A')
                 (A") (A') (A") (A') (A") (A")
       Virtual   (A') (A") (A') (A") (A') (A') (A') (A') (A") (A')
                 (A') (A") (A") (A') (A') (A') (A') (A") (A") (A')
                 (A') (A') (A") (A') (A") (A') (A') (A') (A') (A")
                 (A') (A") (A') (A') (A') (A') (A') (A') (A') (A')
                 (A') (A') (A') (A') (A') (A') (A') (A') (A') (A')
                 (A") (A") (A') (A') (A') (A') (A") (A') (A') (A')
                 (A") (A") (A") (A") (A') (A') (A') (A") (A') (A')
                 (A') (A') (A') (A") (A') (A') (A') (A') (A") (A')
                 (A") (A') (A") (A') (A') (A') (A') (A') (A') (A")
                 (A') (A") (A") (A') (A") (A') (A') (A') (A') (A")
                 (A") (A') (A') (A') (A') (A') (A") (A") (A") (A')
                 (A') (A') (A') (A") (A') (A') (A") (A') (A") (A")
                 (A') (A') (A') (A") (A') (A') (A") (A") (A") (A')
                 (A') (A') (A') (A') (A') (A') (A') (A") (A') (A')
                 (A') (A') (A') (A") (A") (A") (A") (A') (A") (A')
                 (A') (A') (A') (A') (A') (A') (A') (A') (A') (A')
                 (A') (A') (A') (A') (A') (A') (A') (A') (A') (A")
                 (A") (A') (A') (A') (A') (A') (A')
 Initial guess <Sx>= 0.0000 <Sy>= 0.0000 <Sz>= 0.5000 <S**2>= 0.7623 S= 0.5061
 Keep R1 and R2 ints in memory in symmetry-blocked form, NReq=411615841.
 Requested convergence on RMS density matrix=1.00D-08 within 128 cycles.
 Requested convergence on MAX density matrix=1.00D-06.
 Requested convergence on             energy=1.00D-06.
 No special actions if energy rises.
 SCF Done:  E(UM062X) =  -1150.71279661     A.U. after   14 cycles
            NFock= 14  Conv=0.53D-08     -V/T= 2.0024
 <Sx>= 0.0000 <Sy>= 0.0000 <Sz>= 0.5000 <S**2>= 0.7623 S= 0.5062
 <L.S>=  0.00000000000    
 Annihilation of the first spin contaminant:
 S**2 before annihilation     0.7623,   after     0.7501
 Calling FoFJK, ICntrl=      2127 FMM=F ISym2X=1 I1Cent= 0 IOpClX= 1 NMat=1 NMatS=1 NMatT=0.
 ***** Axes restored to original set *****
 -------------------------------------------------------------------
 Center     Atomic                   Forces (Hartrees/Bohr)
 Number     Number              X              Y              Z
 -------------------------------------------------------------------
      1        6          -0.001569314    0.000849485   -0.000000000
      2        6           0.000618427   -0.002267207   -0.000000000
      3        6           0.000220267    0.000905326   -0.000000000
      4        6          -0.000018306    0.000009890   -0.000000000
      5        6          -0.000637545   -0.000679717   -0.000000000
      6        6           0.002236391    0.000721856   -0.000000000
      7       17          -0.000943872   -0.000679305   -0.000000000
      8        1          -0.000256654    0.000138930   -0.000000000
      9       17           0.000052660    0.001161731   -0.000000000
     10        1           0.000286536    0.000173500   -0.000000000
     11        1           0.000011408   -0.000334488   -0.000000000
 -------------------------------------------------------------------
 Cartesian Forces:  Max     0.002267207 RMS     0.000758403

 GradGradGradGradGradGradGradGradGradGradGradGradGradGradGradGradGradGrad
 Berny optimization.
 Using GEDIIS/GDIIS optimizer.
 FormGI is forming the generalized inverse of G from B-inverse, IUseBI=4.
 Internal  Forces:  Max     0.001158944 RMS     0.000395843
 Search for a local minimum.
 Step number   3 out of a maximum of   57
 All quantities printed in internal units (Hartrees-Bohrs-Radians)
 Mixed Optimization -- En-DIIS/RFO-DIIS
 Update second derivatives using D2CorX and points    1    2    3
 DE= -3.21D-04 DEPred=-2.70D-04 R= 1.19D+00
 TightC=F SS=  1.41D+00  RLast= 4.83D-02 DXNew= 6.6897D-01 1.4487D-01
 Trust test= 1.19D+00 RLast= 4.83D-02 DXMaxT set to 3.98D-01
 ITU=  1  1  0
 Use linear search instead of GDIIS.
     Eigenvalues ---    0.01942   0.01948   0.01971   0.01991   0.01999
     Eigenvalues ---    0.02086   0.02135   0.02391   0.15735   0.16000
     Eigenvalues ---    0.16000   0.17600   0.23511   0.23929   0.25000
     Eigenvalues ---    0.25037   0.30918   0.33704   0.34032   0.35755
     Eigenvalues ---    0.36825   0.40388   0.42868   0.43730   0.44323
     Eigenvalues ---    0.50502   0.51364
 RFO step:  Lambda=-1.10031828D-05 EMin= 1.94218239D-02
 Quartic linear search produced a step of  0.23849.
 Iteration  1 RMS(Cart)=  0.00181379 RMS(Int)=  0.00000259
 Iteration  2 RMS(Cart)=  0.00000336 RMS(Int)=  0.00000115
 Iteration  3 RMS(Cart)=  0.00000000 RMS(Int)=  0.00000115
 ClnCor:  largest displacement from symmetrization is 1.95D-10 for atom     8.
 Variable       Old X    -DE/DX   Delta X   Delta X   Delta X     New X
                                 (Linear)    (Quad)   (Total)
    R1        2.62601   0.00053  -0.00051   0.00136   0.00085   2.62686
    R2        2.62601   0.00053  -0.00051   0.00136   0.00085   2.62686
    R3        2.04267   0.00029  -0.00017   0.00050   0.00034   2.04301
    R4        2.63675  -0.00007  -0.00158   0.00061  -0.00096   2.63579
    R5        3.28269   0.00116   0.00557   0.00028   0.00586   3.28854
    R6        2.59035   0.00047   0.00128  -0.00006   0.00122   2.59158
    R7        2.04458   0.00033   0.00016   0.00054   0.00070   2.04528
    R8        2.59035   0.00047   0.00128  -0.00006   0.00122   2.59158
    R9        2.63675  -0.00007  -0.00158   0.00061  -0.00096   2.63579
   R10        2.04458   0.00033   0.00016   0.00054   0.00070   2.04528
   R11        3.28269   0.00116   0.00557   0.00028   0.00586   3.28854
    A1        2.07968  -0.00094  -0.00390  -0.00179  -0.00569   2.07399
    A2        2.10175   0.00047   0.00195   0.00090   0.00284   2.10460
    A3        2.10175   0.00047   0.00195   0.00090   0.00284   2.10460
    A4        2.12098   0.00073   0.00283   0.00149   0.00432   2.12530
    A5        2.07705  -0.00021  -0.00128  -0.00016  -0.00144   2.07560
    A6        2.08516  -0.00052  -0.00155  -0.00132  -0.00287   2.08229
    A7        2.01671  -0.00033   0.00074  -0.00197  -0.00123   2.01548
    A8        2.11343   0.00017  -0.00118   0.00148   0.00029   2.11373
    A9        2.15304   0.00016   0.00044   0.00049   0.00093   2.15398
   A10        2.21132   0.00015  -0.00324   0.00275  -0.00049   2.21083
   A11        2.01671  -0.00033   0.00074  -0.00197  -0.00123   2.01548
   A12        2.15305   0.00016   0.00044   0.00049   0.00093   2.15398
   A13        2.11343   0.00017  -0.00118   0.00148   0.00029   2.11373
   A14        2.12098   0.00073   0.00283   0.00149   0.00432   2.12530
   A15        2.07705  -0.00021  -0.00128  -0.00016  -0.00144   2.07560
   A16        2.08516  -0.00052  -0.00155  -0.00132  -0.00287   2.08229
    D1        0.00000   0.00000   0.00000  -0.00000   0.00000   0.00000
    D2        3.14159   0.00000   0.00000  -0.00000   0.00000   3.14159
    D3        3.14159   0.00000   0.00000   0.00000   0.00000   3.14159
    D4        0.00000   0.00000   0.00000  -0.00000   0.00000   0.00000
    D5        0.00000   0.00000   0.00000   0.00000   0.00000   0.00000
    D6        3.14159   0.00000   0.00000   0.00000   0.00000   3.14159
    D7        3.14159  -0.00000   0.00000  -0.00000   0.00000   3.14159
    D8        0.00000   0.00000   0.00000   0.00000   0.00000   0.00000
    D9        0.00000  -0.00000   0.00000   0.00000   0.00000   0.00000
   D10        3.14159  -0.00000   0.00000   0.00000   0.00000   3.14159
   D11        3.14159   0.00000   0.00000   0.00000   0.00000   3.14159
   D12        0.00000   0.00000   0.00000   0.00000   0.00000   0.00000
   D13        0.00000   0.00000   0.00000   0.00000   0.00000   0.00000
   D14        3.14159   0.00000   0.00000   0.00000   0.00000   3.14159
   D15        0.00000   0.00000   0.00000  -0.00000   0.00000   0.00000
   D16        3.14159  -0.00000   0.00000  -0.00000   0.00000   3.14159
   D17        0.00000  -0.00000   0.00000   0.00000   0.00000   0.00000
   D18        3.14159  -0.00000   0.00000  -0.00000   0.00000   3.14159
   D19        3.14159   0.00000   0.00000   0.00000   0.00000   3.14159
   D20        0.00000  -0.00000   0.00000  -0.00000   0.00000   0.00000
         Item               Value     Threshold  Converged?
 Maximum Force            0.001159     0.000450     NO 
 RMS     Force            0.000396     0.000300     NO 
 Maximum Displacement     0.005121     0.001800     NO 
 RMS     Displacement     0.001813     0.001200     NO 
 Predicted change in Energy=-1.731215D-05
 GradGradGradGradGradGradGradGradGradGradGradGradGradGradGradGradGradGrad

                          Input orientation:                          
 ---------------------------------------------------------------------
 Center     Atomic      Atomic             Coordinates (Angstroms)
 Number     Number       Type             X           Y           Z
 ---------------------------------------------------------------------
      1          6           0       -3.200693    0.194782    0.000000
      2          6           0       -2.009031    0.910497    0.000000
      3          6           0       -0.768923    0.272060    0.000000
      4          6           0       -0.811089   -1.098695    0.000000
      5          6           0       -1.935723   -1.883517    0.000000
      6          6           0       -3.148347   -1.194306    0.000000
      7         17           0       -4.638733   -2.092706    0.000000
      8          1           0       -4.151458    0.709425    0.000000
      9         17           0       -2.071760    2.649588    0.000000
     10          1           0        0.152398    0.840013    0.000000
     11          1           0       -1.907481   -2.965462    0.000000
 ---------------------------------------------------------------------
                    Distance matrix (angstroms):
                    1          2          3          4          5
     1  C    0.000000
     2  C    1.390074   0.000000
     3  C    2.432998   1.394800   0.000000
     4  C    2.717221   2.339212   1.371403   0.000000
     5  C    2.432998   2.794975   2.451109   1.371403   0.000000
     6  C    1.390074   2.393373   2.794975   2.339212   1.394800
[...]
      7       17          -0.000033800   -0.000027666   -0.000000000
      8        1          -0.000029298    0.000015858   -0.000000000
      9       17           0.000004681    0.000043438   -0.000000000
     10        1           0.000027216   -0.000013397   -0.000000000
     11        1           0.000026099   -0.000015435   -0.000000000
 -------------------------------------------------------------------
 Cartesian Forces:  Max     0.000262009 RMS     0.000100614
 FormGI is forming the generalized inverse of G from B-inverse, IUseBI=4.

 GradGradGradGradGradGradGradGradGradGradGradGradGradGradGradGradGradGrad
 Berny optimization.
 Internal  Forces:  Max     0.000201702 RMS     0.000056983
 Search for a local minimum.
 Step number   1 out of a maximum of    2
 All quantities printed in internal units (Hartrees-Bohrs-Radians)
 Second derivative matrix not updated -- analytic derivatives used.
 ITU=  0
     Eigenvalues ---    0.01683   0.01740   0.01956   0.02304   0.02699
     Eigenvalues ---    0.02714   0.03189   0.03492   0.10346   0.10834
     Eigenvalues ---    0.11356   0.15862   0.16257   0.18051   0.18138
     Eigenvalues ---    0.20222   0.26483   0.27042   0.28380   0.36676
     Eigenvalues ---    0.36786   0.37222   0.43032   0.43064   0.47468
     Eigenvalues ---    0.49299   0.52735
 Angle between quadratic step and forces=  13.82 degrees.
 Linear search not attempted -- first point.
 Iteration  1 RMS(Cart)=  0.00028256 RMS(Int)=  0.00000009
 Iteration  2 RMS(Cart)=  0.00000013 RMS(Int)=  0.00000003
 ClnCor:  largest displacement from symmetrization is 6.32D-11 for atom     8.
 Variable       Old X    -DE/DX   Delta X   Delta X   Delta X     New X
                                 (Linear)    (Quad)   (Total)
    R1        2.62686   0.00003   0.00000   0.00003   0.00003   2.62689
    R2        2.62686   0.00003   0.00000   0.00003   0.00003   2.62689
    R3        2.04301   0.00003   0.00000   0.00006   0.00006   2.04307
    R4        2.63579   0.00009   0.00000   0.00021   0.00021   2.63600
    R5        3.28854   0.00004   0.00000   0.00033   0.00033   3.28888
    R6        2.59158  -0.00003   0.00000  -0.00011  -0.00011   2.59147
    R7        2.04528   0.00002   0.00000  -0.00000  -0.00000   2.04527
    R8        2.59158  -0.00003   0.00000  -0.00011  -0.00011   2.59147
    R9        2.63579   0.00009   0.00000   0.00021   0.00021   2.63600
   R10        2.04528   0.00002   0.00000  -0.00000  -0.00000   2.04527
   R11        3.28854   0.00004   0.00000   0.00033   0.00033   3.28888
    A1        2.07399  -0.00007   0.00000  -0.00034  -0.00034   2.07365
    A2        2.10460   0.00003   0.00000   0.00017   0.00017   2.10477
    A3        2.10460   0.00003   0.00000   0.00017   0.00017   2.10477
    A4        2.12530   0.00008   0.00000   0.00045   0.00045   2.12574
    A5        2.07560  -0.00003   0.00000  -0.00019  -0.00019   2.07541
    A6        2.08229  -0.00005   0.00000  -0.00026  -0.00026   2.08203
    A7        2.01548  -0.00014   0.00000  -0.00082  -0.00082   2.01466
    A8        2.11373   0.00010   0.00000   0.00062   0.00062   2.11434
    A9        2.15398   0.00004   0.00000   0.00020   0.00020   2.15418
   A10        2.21083   0.00020   0.00000   0.00108   0.00108   2.21191
   A11        2.01548  -0.00014   0.00000  -0.00082  -0.00082   2.01466
   A12        2.15398   0.00004   0.00000   0.00020   0.00020   2.15418
   A13        2.11373   0.00010   0.00000   0.00062   0.00062   2.11434
   A14        2.12530   0.00008   0.00000   0.00045   0.00045   2.12574
   A15        2.07560  -0.00003   0.00000  -0.00019  -0.00019   2.07541
   A16        2.08229  -0.00005   0.00000  -0.00026  -0.00026   2.08203
    D1        0.00000   0.00000   0.00000  -0.00000   0.00000   0.00000
    D2        3.14159   0.00000   0.00000   0.00000   0.00000   3.14159
    D3        3.14159  -0.00000   0.00000   0.00000   0.00000   3.14159
    D4        0.00000   0.00000   0.00000   0.00000   0.00000   0.00000
    D5        0.00000   0.00000   0.00000  -0.00000   0.00000   0.00000
    D6        3.14159  -0.00000   0.00000  -0.00000   0.00000   3.14159
    D7        3.14159   0.00000   0.00000  -0.00000   0.00000   3.14159
    D8        0.00000   0.00000   0.00000  -0.00000   0.00000   0.00000
    D9        0.00000  -0.00000   0.00000   0.00000   0.00000   0.00000
   D10        3.14159   0.00000   0.00000   0.00000   0.00000   3.14159
   D11        3.14159  -0.00000   0.00000   0.00000   0.00000   3.14159
   D12        0.00000   0.00000   0.00000   0.00000   0.00000   0.00000
   D13        0.00000   0.00000   0.00000  -0.00000   0.00000   0.00000
   D14        3.14159  -0.00000   0.00000  -0.00000   0.00000   3.14159
   D15        0.00000  -0.00000   0.00000  -0.00000   0.00000   0.00000
   D16        3.14159   0.00000   0.00000   0.00000   0.00000   3.14159
   D17        0.00000  -0.00000   0.00000   0.00000   0.00000   0.00000
   D18        3.14159   0.00000   0.00000   0.00000   0.00000   3.14159
   D19        3.14159  -0.00000   0.00000   0.00000   0.00000   3.14159
   D20        0.00000  -0.00000   0.00000   0.00000   0.00000   0.00000
         Item               Value     Threshold  Converged?
 Maximum Force            0.000202     0.000450     YES
 RMS     Force            0.000057     0.000300     YES
 Maximum Displacement     0.000941     0.001800     YES
 RMS     Displacement     0.000283     0.001200     YES
 Predicted change in Energy=-4.020605D-07
 Optimization completed.
    -- Stationary point found.
                           ----------------------------
                           !   Optimized Parameters   !
                           ! (Angstroms and Degrees)  !
 --------------------------                            --------------------------
 ! Name  Definition              Value          Derivative Info.                !
 --------------------------------------------------------------------------------
 ! R1    R(1,2)                  1.3901         -DE/DX =    0.0                 !
 ! R2    R(1,6)                  1.3901         -DE/DX =    0.0                 !
 ! R3    R(1,8)                  1.0811         -DE/DX =    0.0                 !
 ! R4    R(2,3)                  1.3948         -DE/DX =    0.0001              !
 ! R5    R(2,9)                  1.7402         -DE/DX =    0.0                 !
 ! R6    R(3,4)                  1.3714         -DE/DX =    0.0                 !
 ! R7    R(3,10)                 1.0823         -DE/DX =    0.0                 !
 ! R8    R(4,5)                  1.3714         -DE/DX =    0.0                 !
 ! R9    R(5,6)                  1.3948         -DE/DX =    0.0001              !
 ! R10   R(5,11)                 1.0823         -DE/DX =    0.0                 !
 ! R11   R(6,7)                  1.7402         -DE/DX =    0.0                 !
 ! A1    A(2,1,6)              118.831          -DE/DX =   -0.0001              !
 ! A2    A(2,1,8)              120.5845         -DE/DX =    0.0                 !
 ! A3    A(6,1,8)              120.5845         -DE/DX =    0.0                 !
 ! A4    A(1,2,3)              121.7704         -DE/DX =    0.0001              !
 ! A5    A(1,2,9)              118.9233         -DE/DX =    0.0                 !
 ! A6    A(3,2,9)              119.3063         -DE/DX =    0.0                 !
 ! A7    A(2,3,4)              115.4785         -DE/DX =   -0.0001              !
 ! A8    A(2,3,10)             121.1076         -DE/DX =    0.0001              !
 ! A9    A(4,3,10)             123.4139         -DE/DX =    0.0                 !
 ! A10   A(3,4,5)              126.6711         -DE/DX =    0.0002              !
 ! A11   A(4,5,6)              115.4785         -DE/DX =   -0.0001              !
 ! A12   A(4,5,11)             123.4139         -DE/DX =    0.0                 !
 ! A13   A(6,5,11)             121.1075         -DE/DX =    0.0001              !
 ! A14   A(1,6,5)              121.7704         -DE/DX =    0.0001              !
 ! A15   A(1,6,7)              118.9233         -DE/DX =    0.0                 !
 ! A16   A(5,6,7)              119.3063         -DE/DX =    0.0                 !
 ! D1    D(6,1,2,3)              0.0            -DE/DX =    0.0                 !
 ! D2    D(6,1,2,9)            180.0            -DE/DX =    0.0                 !
 ! D3    D(8,1,2,3)            180.0            -DE/DX =    0.0                 !
 ! D4    D(8,1,2,9)              0.0            -DE/DX =    0.0                 !
 ! D5    D(2,1,6,5)              0.0            -DE/DX =    0.0                 !
 ! D6    D(2,1,6,7)            180.0            -DE/DX =    0.0                 !
 ! D7    D(8,1,6,5)            180.0            -DE/DX =    0.0                 !
 ! D8    D(8,1,6,7)              0.0            -DE/DX =    0.0                 !
 ! D9    D(1,2,3,4)              0.0            -DE/DX =    0.0                 !
 ! D10   D(1,2,3,10)           180.0            -DE/DX =    0.0                 !
 ! D11   D(9,2,3,4)            180.0            -DE/DX =    0.0                 !
 ! D12   D(9,2,3,10)             0.0            -DE/DX =    0.0                 !
 ! D13   D(2,3,4,5)              0.0            -DE/DX =    0.0                 !
 ! D14   D(10,3,4,5)           180.0            -DE/DX =    0.0                 !
 ! D15   D(3,4,5,6)              0.0            -DE/DX =    0.0                 !
 ! D16   D(3,4,5,11)           180.0            -DE/DX =    0.0                 !
 ! D17   D(4,5,6,1)              0.0            -DE/DX =    0.0                 !
 ! D18   D(4,5,6,7)            180.0            -DE/DX =    0.0                 !
 ! D19   D(11,5,6,1)           180.0            -DE/DX =    0.0                 !
 ! D20   D(11,5,6,7)             0.0            -DE/DX =    0.0                 !
 --------------------------------------------------------------------------------
 GradGradGradGradGradGradGradGradGradGradGradGradGradGradGradGradGradGrad


 ----------------------------------------------------------------------

 Electric dipole moment (input orientation):
 (Debye = 10**-18 statcoulomb cm , SI units = C m)
                  (au)            (Debye)         (10**-30 SI)
   Tot        0.330180D+00      0.839235D+00      0.279939D+01
   x          0.290370D+00      0.738048D+00      0.246186D+01
   y         -0.157176D+00     -0.399500D+00     -0.133259D+01
   z          0.000000D+00      0.000000D+00      0.000000D+00

 Dipole polarizability, Alpha (input orientation).
 (esu units = cm**3 , SI units = C**2 m**2 J**-1)
 Alpha(0;0):
               (au)            (10**-24 esu)      (10**-40 SI)
   iso        0.889639D+02      0.131831D+02      0.146682D+02
   aniso      0.636378D+02      0.943015D+01      0.104925D+02
   xx         0.100051D+03      0.148260D+02      0.164962D+02
   yx         0.126373D+02      0.187265D+01      0.208361D+01
   yy         0.116557D+03      0.172720D+02      0.192176D+02
   zx         0.000000D+00      0.000000D+00      0.000000D+00
   zy         0.000000D+00      0.000000D+00      0.000000D+00
   zz         0.502839D+02      0.745130D+01      0.829069D+01

 ----------------------------------------------------------------------

 Dipole orientation:
     6         -1.21650559         -2.24740526         -5.49439000
     6         -0.14000822         -0.25865497         -4.15782017
     6         -0.11403997         -0.21068053         -1.52259433
     6         -1.21650583         -2.24740571         -0.35958658
     6         -2.31897156         -4.28413065         -1.52259477
     6         -2.29300308         -4.23615577         -4.15782060
    17         -3.64194293         -6.72822365         -5.82649551
     1         -1.21650550         -2.24740508         -7.53740155
    17          1.20893176          2.23341316         -5.82649451
     1          0.72979712          1.34824690         -0.50237977
     1         -3.16280879         -5.84305832         -0.50238053

 Electric dipole moment (dipole orientation):
 (Debye = 10**-18 statcoulomb cm , SI units = C m)
                  (au)            (Debye)         (10**-30 SI)
   Tot        0.330180D+00      0.839235D+00      0.279939D+01
   x          0.000000D+00      0.000000D+00      0.000000D+00
   y          0.000000D+00      0.000000D+00      0.000000D+00
   z          0.330180D+00      0.839235D+00      0.279939D+01

 Dipole polarizability, Alpha (dipole orientation).
 (esu units = cm**3 , SI units = C**2 m**2 J**-1)
 Alpha(0;0):
               (au)            (10**-24 esu)      (10**-40 SI)
   iso        0.889639D+02      0.131831D+02      0.146682D+02
   aniso      0.636378D+02      0.943015D+01      0.104925D+02
   xx         0.668517D+02      0.990640D+01      0.110224D+02
   yx         0.306078D+02      0.453561D+01      0.504655D+01
   yy         0.106830D+03      0.158305D+02      0.176138D+02
   zx         0.000000D+00      0.000000D+00      0.000000D+00
   zy         0.000000D+00      0.000000D+00      0.000000D+00
   zz         0.932105D+02      0.138124D+02      0.153683D+02

 ----------------------------------------------------------------------
 1\1\GINC-SH02-09N16\Freq\UM062X\6-311++G(d,p)\C6H3Cl2(2)\JLAPIER\09-De
 c-2025\0\\#N Geom=AllCheck Guess=TCheck SCRF=Check GenChk UM062X/6-311
 ++G(d,p) Freq\\Neutral Radical (removed 5) 13_\\0,2\C,-3.2006933018,0.
 194782441,0.\C,-2.0090305743,0.9104966643,0.\C,-0.7689231726,0.2720600
 655,0.\C,-0.8110894103,-1.0986946351,0.\C,-1.9357229279,-1.8835167955,
 0.\C,-3.1483465863,-1.1943060078,0.\Cl,-4.6387327358,-2.0927058727,0.\
 H,-4.1514577151,0.7094250467,0.\Cl,-2.0717599307,2.6495878472,0.\H,0.1
 523975243,0.8400129412,0.\H,-1.907481174,-2.9654617033,0.\\Version=ES6
 4L-G16RevB.01\State=2-A'\HF=-1150.7128154\S2=0.762379\S2-1=0.\S2A=0.75
 0072\RMSD=2.982e-09\RMSF=1.006e-04\ZeroPoint=0.0688531\Thermal=0.07546
 39\Dipole=0.2903703,-0.1571755,0.\DipoleDeriv=-0.2182224,-0.2160164,0.
 ,-0.2160164,-0.5003686,0.,0.,0.,-0.111819,0.2393666,-0.0071147,0.,-0.0
 021661,1.2937707,0.,0.,0.,-0.0053769,-0.1276338,0.1252214,0.,0.0546783
 ,-0.3557616,0.,0.,0.,-0.0984624,-0.0167764,0.0990737,0.,0.0990736,0.11
 26269,0.,0.,0.,-0.0414043,-0.3699158,-0.103548,0.,-0.0330048,-0.113479
 6,0.,0.,0.,-0.0984624,0.9827722,0.4833272,0.,0.4783786,0.550365,0.,0.,
 0.,-0.0053769,-0.6379805,-0.374,0.,-0.3293831,-0.3171853,0.,0.,0.,-0.0
 576875,0.0539449,0.0188623,0.,0.0188623,0.0785816,0.,0.,0.,0.1532631,-
 0.0910802,0.0277793,0.,-0.0168377,-0.8640857,0.,0.,0.,-0.0576875,0.076
 2199,-0.0348422,0.,-0.0403497,0.0743111,0.,0.,0.,0.161507,0.1093056,-0
 .0187425,0.,-0.0132351,0.0412254,0.,0.,0.,0.161507\Polar=100.0509693,1
 2.6372831,116.5569424,0.,0.,50.2838865\Quadrupole=1.6788723,0.2737636,
 -1.9526359,-1.0757777,0.,0.\PG=CS [SG(C6H3Cl2)]\NImag=0\\0.74932395,-0
 .04566683,0.68967701,0.,0.,0.12468048,-0.28711368,-0.05049152,0.,0.648
 46639,-0.12701543,-0.15995167,0.,0.01026060,0.51829695,0.,0.,-0.061568
 02,0.,0.,0.12220635,-0.05326913,-0.03083364,0.,-0.28709799,0.11705049,
 0.,0.69315211,0.02622262,0.06733597,0.,0.03081629,-0.13695349,0.,0.082
 60651,0.68733848,0.,0.,0.00793754,0.,0.,-0.06287617,0.,0.,0.11903650,-
 0.02251659,-0.03288842,0.,0.04159915,0.02294717,0.,-0.10146703,0.00248
 598,0.,0.41877258,-0.03288842,-0.06547325,0.,0.10276509,-0.03651514,0.
 ,-0.03720965,-0.36126823,0.,0.14557594,0.60891407,0.,0.,-0.00370238,0.
 ,0.,0.01269716,0.,0.,-0.05103430,0.,0.,0.07562901,0.03338825,0.0828156
 6,0.,-0.08519135,-0.00341520,0.,0.04102900,-0.07272057,0.,-0.26769561,
 -0.10607235,0.,0.61344025,0.02575939,-0.01932142,0.,-0.00172158,0.0037
 8411,0.,-0.03211687,-0.02743683,0.,-0.14576797,-0.19503970,0.,0.030549
 36,0.76705031,0.,0.,0.00793754,0.,0.,-0.00177589,0.,0.,0.00584513,0.,0
 .,-0.05103430,0.,0.,0.11903650,-0.11670600,-0.01572788,0.,0.04462242,-
 0.02397708,0.,-0.02046623,0.03885461,0.,-0.07071295,-0.05040011,0.,-0.
 24953908,0.14157898,0.,0.54782035,0.06079603,-0.33035936,0.,-0.0987844
 3,-0.03554901,0.,0.04054823,-0.06094101,0.,0.02941781,0.07579697,0.,0.
 05534477,-0.17451242,0.,-0.05546797,0.61894297,0.,0.,-0.06156802,0.,0.
 ,0.00253714,0.,0.,-0.00177589,0.,0.,0.01269716,0.,0.,-0.06287616,0.,0.
 ,0.12220634,-0.01361645,-0.01130713,0.,0.00160249,0.00099336,0.,-0.000
 06382,-0.00263409,0.,-0.00412156,0.00588654,0.,-0.03877866,-0.02451066
 ,0.,-0.13622841,-0.05957653,0.,0.18930937,-0.03785580,-0.02105449,0.,0
 .00502023,-0.00160183,0.,-0.00229672,0.00053951,0.,-0.00012880,-0.0003
 1025,0.,0.00227047,0.00421143,0.,-0.05842877,-0.07522293,0.,0.09270535
 ,0.09307028,0.,0.,0.00465547,0.,0.,0.00508211,0.,0.,-0.00102894,0.,0.,
 0.00446706,0.,0.,0.00528699,0.,0.,-0.02311141,0.,0.,0.01057918,-0.2858
 3498,0.12520772,0.,-0.01713374,0.01393910,0.,-0.00256216,-0.00320238,0
 .,0.00038293,-0.00117491,0.,0.00135406,-0.00085473,0.,0.00267656,-0.00
 253849,0.,0.00083704,-0.00074757,0.,0.29985357,0.12520772,-0.12229704,
 0.,-0.01547594,0.01012192,0.,-0.00341229,-0.00129550,0.,-0.00117491,-0
 .00115166,0.,-0.00064482,-0.00521173,0.,0.02687655,-0.00968838,0.,0.00
 043773,0.00062679,0.,-0.13158283,0.12798889,0.,0.,-0.03393362,0.,0.,0.
 00250269,0.,0.,0.00548855,0.,0.,-0.00101160,0.,0.,0.00548855,0.,0.,0.0
 0250269,0.,0.,-0.00275156,0.,0.,0.02407282,0.00367672,-0.02656222,0.,-
 0.03943823,0.00478166,0.,0.00154001,0.02860124,0.,-0.00408572,-0.00010
 539,0.,0.00261651,-0.00054629,0.,-0.00339689,0.00175530,0.,-0.00011325
 ,-0.00089489,0.,0.00083150,-0.00075119,0.,0.03696080,-0.00001354,-0.03
 834765,0.,0.00363390,-0.17201314,0.,0.00182011,-0.03610725,0.,0.005909
 94,-0.00034608,0.,-0.00088365,-0.00214082,0.,-0.00227157,0.00339755,0.
 ,-0.00104151,-0.00137785,0.,0.00043411,0.00063233,0.,-0.00678841,0.245
 41888,0.,0.,0.00465547,0.,0.,-0.02311141,0.,0.,0.00528699,0.,0.,0.0044
 6706,0.,0.,-0.00102894,0.,0.,0.00508211,0.,0.,-0.00004175,0.,0.,-0.002
 75156,0.,0.,0.01057918,-0.00285399,0.00342093,0.,-0.01849678,-0.015747
 63,0.,-0.26696698,-0.12743302,0.,0.00551008,-0.00221165,0.,0.00112171,
 0.00227874,0.,-0.00013840,0.00084509,0.,0.00007193,-0.00005168,0.,-0.0
 0069451,-0.00074188,0.,0.00118282,-0.00077666,0.,0.28097458,0.00309398
 ,-0.00091611,0.,0.01422962,0.00984831,0.,-0.13520258,-0.13147233,0.,-0
 .02339750,-0.01289104,0.,-0.00036486,-0.00468880,0.,0.00128030,-0.0011
 4730,0.,-0.00012316,0.00017716,0.,0.00061909,0.00062932,0.,0.00046141,
 0.00086066,0.,0.14028307,0.13979691,0.,0.,0.00545277,0.,0.,0.00449028,
 0.,0.,-0.03258764,0.,0.,-0.00158744,0.,0.,0.00570822,0.,0.,-0.00018424
 ,0.,0.,-0.00046560,0.,0.,0.00019652,0.,0.,-0.00267156,0.,0.,0.02171586
 ,-0.00447810,0.00203333,0.,-0.00181868,0.00018296,0.,-0.00382776,-0.00
 359719,0.,0.00433472,-0.02416509,0.,-0.05174508,0.00535164,0.,0.002068
 61,0.02766018,0.,0.00110131,0.00040818,0.,0.00028974,0.00126187,0.,0.0
 0022574,-0.00002271,0.,0.00028953,-0.00087936,0.,0.05355997,0.00236027
 ,0.00070801,0.,-0.00025225,0.00053299,0.,-0.00095359,0.00026067,0.,-0.
 00297924,-0.01171569,0.,0.01312120,-0.34669415,0.,-0.00231706,-0.01071
 708,0.,-0.00082989,0.00094217,0.,-0.00009910,-0.00035493,0.,0.00004877
 ,0.00002335,0.,0.00013468,-0.00019679,0.,-0.00823380,0.36721145,0.,0.,
 0.00545277,0.,0.,-0.00018424,0.,0.,0.00570822,0.,0.,-0.00158744,0.,0.,
 -0.03258765,0.,0.,0.00449028,0.,0.,-0.00267156,0.,0.,0.00019652,0.,0.,
 -0.00046560,0.,0.,-0.00006716,0.,0.,0.02171587\\0.00011223,-0.00006075
 ,0.,0.00008238,0.00017976,0.,-0.00026201,-0.00005886,0.,0.00026171,-0.
 00014168,0.,-0.00009397,0.00025160,0.,-0.00010544,-0.00016727,0.,0.000
 03380,0.00002767,0.,0.00002930,-0.00001586,0.,-0.00000468,-0.00004344,
 0.,-0.00002722,0.00001340,0.,-0.00002610,0.00001544,0.\\\@


 IF YOU'RE NOT PART OF THE SOLUTION,
 THEN YOU'RE PART OF THE PRECIPITATE.
 Job cpu time:       0 days  0 hours 35 minutes 22.9 seconds.
 Elapsed time:       0 days  0 hours  8 minutes 53.1 seconds.
 File lengths (MBytes):  RWF=    142 Int=      0 D2E=      0 Chk=     34 Scr=      1
 Normal termination of Gaussian 16 at Tue Dec  9 13:52:11 2025.
