 Entering Gaussian System, Link 0=g16
 Initial command:
 /share/software/user/restricted/gaussian/g16.B01/l1.exe "/home/users/jlapier/Chloroaromatics/Gau-10640.inp" -scrdir="/home/users/jlapier/Chloroaromatics/"
 Entering Link 1 = /share/software/user/restricted/gaussian/g16.B01/l1.exe PID=     10641.
  
 Copyright (c) 1988-2017, Gaussian, Inc.  All Rights Reserved.
  
 This is part of the Gaussian(R) 16 program.  It is based on
 the Gaussian(R) 09 system (copyright 2009, Gaussian, Inc.),
 the Gaussian(R) 03 system (copyright 2003, Gaussian, Inc.),
 the Gaussian(R) 98 system (copyright 1998, Gaussian, Inc.),
 the Gaussian(R) 94 system (copyright 1995, Gaussian, Inc.),
 the Gaussian 92(TM) system (copyright 1992, Gaussian, Inc.),
 the Gaussian 90(TM) system (copyright 1990, Gaussian, Inc.),
 the Gaussian 88(TM) system (copyright 1988, Gaussian, Inc.),
 the Gaussian 86(TM) system (copyright 1986, Carnegie Mellon
 University), and the Gaussian 82(TM) system (copyright 1983,
 Carnegie Mellon University). Gaussian is a federally registered
 trademark of Gaussian, Inc.
  
 This software contains proprietary and confidential information,
 including trade secrets, belonging to Gaussian, Inc.
  
 This software is provided under written license and may be
 used, copied, transmitted, or stored only in accord with that
 written license.
  
 The following legend is applicable only to US Government
 contracts under FAR:
  
                    RESTRICTED RIGHTS LEGEND
  
 Use, reproduction and disclosure by the US Government is
 subject to restrictions as set forth in subparagraphs (a)
 and (c) of the Commercial Computer Software - Restricted
 Rights clause in FAR 52.227-19.
  
 Gaussian, Inc.
 340 Quinnipiac St., Bldg. 40, Wallingford CT 06492
  
  
 ---------------------------------------------------------------
 Warning -- This program may not be used in any manner that
 competes with the business of Gaussian, Inc. or will provide
 assistance to any competitor of Gaussian, Inc.  The licensee
 of this program is prohibited from giving any competitor of
 Gaussian, Inc. access to this program.  By using this program,
 the user acknowledges that Gaussian, Inc. is engaged in the
 business of creating and licensing software in the field of
 computational chemistry and represents and warrants to the
 licensee that it is not a competitor of Gaussian, Inc. and that
 it will not use this program in any manner prohibited above.
 ---------------------------------------------------------------
  

 Cite this work as:
 Gaussian 16, Revision B.01,
 M. J. Frisch, G. W. Trucks, H. B. Schlegel, G. E. Scuseria, 
 M. A. Robb, J. R. Cheeseman, G. Scalmani, V. Barone, 
 G. A. Petersson, H. Nakatsuji, X. Li, M. Caricato, A. V. Marenich, 
 J. Bloino, B. G. Janesko, R. Gomperts, B. Mennucci, H. P. Hratchian, 
 J. V. Ortiz, A. F. Izmaylov, J. L. Sonnenberg, D. Williams-Young, 
 F. Ding, F. Lipparini, F. Egidi, J. Goings, B. Peng, A. Petrone, 
 T. Henderson, D. Ranasinghe, V. G. Zakrzewski, J. Gao, N. Rega, 
 G. Zheng, W. Liang, M. Hada, M. Ehara, K. Toyota, R. Fukuda, 
 J. Hasegawa, M. Ishida, T. Nakajima, Y. Honda, O. Kitao, H. Nakai, 
 T. Vreven, K. Throssell, J. A. Montgomery, Jr., J. E. Peralta, 
 F. Ogliaro, M. J. Bearpark, J. J. Heyd, E. N. Brothers, K. N. Kudin, 
 V. N. Staroverov, T. A. Keith, R. Kobayashi, J. Normand, 
 K. Raghavachari, A. P. Rendell, J. C. Burant, S. S. Iyengar, 
 J. Tomasi, M. Cossi, J. M. Millam, M. Klene, C. Adamo, R. Cammi, 
 J. W. Ochterski, R. L. Martin, K. Morokuma, O. Farkas, 
 J. B. Foresman, and D. J. Fox, Gaussian, Inc., Wallingford CT, 2016.
 
 ******************************************
 Gaussian 16:  ES64L-G16RevB.01 20-Dec-2017
                 9-Dec-2025 
 ******************************************
 %mem=8GB
 %nprocshare=4
 Will use up to    4 processors via shared memory.
 %oldchk=geometry_chks/13ClBzAnionRadical.chk
 %chk=frequency_chks/13ClBzAnionRadical_Freq.chk
 Copying data from "geometry_chks/13ClBzAnionRadical.chk" to current chk file "frequency_chks/13ClBzAnionRadical_Freq.chk"
 IOpt=  2 FromEx=T IUOpen= 4 IOptOp= 5 NList=   0 IFRang= 0 IUIn= 4 IUOut= 2.
 -------------------------------------------------------
 # opt freq 6-311++g(d,p) guess=read geom=allcheck m062x
 -------------------------------------------------------
 1/18=20,19=15,26=3,29=7,38=1/1,3;
 2/9=110,12=2,40=1/2;
 3/5=4,6=6,7=1111,11=2,14=-4,25=1,30=1,71=1,74=-55,116=-2/1,2,3;
 4/5=1/1;
 5/5=2,38=6/2;
 6/7=2,8=2,9=2,10=2,28=1/1;
 7//1,2,3,16;
 1/18=20,19=15,26=3/3(2);
 2/9=110/2;
 99//99;
 2/9=110/2;
 3/5=4,6=6,7=1111,11=2,14=-2,25=1,30=1,71=1,74=-55/1,2,3;
 4/5=5,16=3,69=1/1;
 5/5=2,38=5/2;
 7//1,2,3,16;
 1/18=20,19=15,26=3/3(-5);
 2/9=110/2;
 6/7=2,8=2,9=2,10=2,19=2,28=1/1;
 99/9=1/99;
 Structure from the checkpoint file:  "frequency_chks/13ClBzAnionRadical_Freq.chk"
 -----------------------------------
 2-Chloro-Benzene Anion Radical (13)
 -----------------------------------
 Charge = -1 Multiplicity = 2
 Redundant internal coordinates found in file.  (old form).
 C,0,-3.1683976362,0.1773008251,0.
 C,0,-1.9724161588,0.8981913779,0.
 C,0,-0.7355037098,0.239385248,0.
 C,0,-0.6995261759,-1.1590839522,0.
 C,0,-1.8900929029,-1.8936321093,0.
 C,0,-3.1180242459,-1.2182340033,0.
 Cl,0,-4.6184052327,-2.2343552794,0.
 H,0,-4.1331731017,0.6995278713,0.
 Cl,0,-1.9420452347,2.7100200922,0.
 H,0,0.198148617,0.8157561018,0.
 H,0,0.2668923127,-1.6822003577,0.
 H,0,-1.862156531,-2.9905058146,0.
 Recover connectivity data from disk.

 GradGradGradGradGradGradGradGradGradGradGradGradGradGradGradGradGradGrad
 Berny optimization.
 Initialization pass.
                           ----------------------------
                           !    Initial Parameters    !
                           ! (Angstroms and Degrees)  !
 --------------------------                            --------------------------
 ! Name  Definition              Value          Derivative Info.                !
 --------------------------------------------------------------------------------
 ! R1    R(1,2)                  1.3964         estimate D2E/DX2                !
 ! R2    R(1,6)                  1.3964         estimate D2E/DX2                !
 ! R3    R(1,8)                  1.097          estimate D2E/DX2                !
 ! R4    R(2,3)                  1.4014         estimate D2E/DX2                !
 ! R5    R(2,9)                  1.8121         estimate D2E/DX2                !
 ! R6    R(3,4)                  1.3989         estimate D2E/DX2                !
 ! R7    R(3,10)                 1.0972         estimate D2E/DX2                !
 ! R8    R(4,5)                  1.3989         estimate D2E/DX2                !
 ! R9    R(4,11)                 1.0989         estimate D2E/DX2                !
 ! R10   R(5,6)                  1.4014         estimate D2E/DX2                !
 ! R11   R(5,12)                 1.0972         estimate D2E/DX2                !
 ! R12   R(6,7)                  1.8121         estimate D2E/DX2                !
 ! A1    A(2,1,6)              119.0127         estimate D2E/DX2                !
 ! A2    A(2,1,8)              120.4937         estimate D2E/DX2                !
 ! A3    A(6,1,8)              120.4937         estimate D2E/DX2                !
 ! A4    A(1,2,3)              120.8794         estimate D2E/DX2                !
 ! A5    A(1,2,9)              122.0403         estimate D2E/DX2                !
 ! A6    A(3,2,9)              117.0804         estimate D2E/DX2                !
 ! A7    A(2,3,4)              119.5144         estimate D2E/DX2                !
 ! A8    A(2,3,10)             120.271          estimate D2E/DX2                !
 ! A9    A(4,3,10)             120.2146         estimate D2E/DX2                !
 ! A10   A(3,4,5)              120.1998         estimate D2E/DX2                !
 ! A11   A(3,4,11)             119.9001         estimate D2E/DX2                !
 ! A12   A(5,4,11)             119.9001         estimate D2E/DX2                !
 ! A13   A(4,5,6)              119.5144         estimate D2E/DX2                !
 ! A14   A(4,5,12)             120.2145         estimate D2E/DX2                !
 ! A15   A(6,5,12)             120.271          estimate D2E/DX2                !
 ! A16   A(1,6,5)              120.8793         estimate D2E/DX2                !
 ! A17   A(1,6,7)              122.0403         estimate D2E/DX2                !
 ! A18   A(5,6,7)              117.0804         estimate D2E/DX2                !
 ! D1    D(6,1,2,3)              0.0            estimate D2E/DX2                !
 ! D2    D(6,1,2,9)            180.0            estimate D2E/DX2                !
 ! D3    D(8,1,2,3)            180.0            estimate D2E/DX2                !
 ! D4    D(8,1,2,9)              0.0            estimate D2E/DX2                !
 ! D5    D(2,1,6,5)              0.0            estimate D2E/DX2                !
 ! D6    D(2,1,6,7)            180.0            estimate D2E/DX2                !
 ! D7    D(8,1,6,5)            180.0            estimate D2E/DX2                !
 ! D8    D(8,1,6,7)              0.0            estimate D2E/DX2                !
 ! D9    D(1,2,3,4)              0.0            estimate D2E/DX2                !
 ! D10   D(1,2,3,10)           180.0            estimate D2E/DX2                !
 ! D11   D(9,2,3,4)            180.0            estimate D2E/DX2                !
 ! D12   D(9,2,3,10)             0.0            estimate D2E/DX2                !
 ! D13   D(2,3,4,5)              0.0            estimate D2E/DX2                !
 ! D14   D(2,3,4,11)           180.0            estimate D2E/DX2                !
 ! D15   D(10,3,4,5)           180.0            estimate D2E/DX2                !
 ! D16   D(10,3,4,11)            0.0            estimate D2E/DX2                !
 ! D17   D(3,4,5,6)              0.0            estimate D2E/DX2                !
 ! D18   D(3,4,5,12)           180.0            estimate D2E/DX2                !
 ! D19   D(11,4,5,6)           180.0            estimate D2E/DX2                !
 ! D20   D(11,4,5,12)            0.0            estimate D2E/DX2                !
 ! D21   D(4,5,6,1)              0.0            estimate D2E/DX2                !
 ! D22   D(4,5,6,7)            180.0            estimate D2E/DX2                !
 ! D23   D(12,5,6,1)           180.0            estimate D2E/DX2                !
 ! D24   D(12,5,6,7)             0.0            estimate D2E/DX2                !
 --------------------------------------------------------------------------------
 Trust Radius=3.00D-01 FncErr=1.00D-07 GrdErr=1.00D-06 EigMax=2.50D+02 EigMin=1.00D-04
 Number of steps in this run=     64 maximum allowed number of steps=    100.
 GradGradGradGradGradGradGradGradGradGradGradGradGradGradGradGradGradGrad

                          Input orientation:                          
 ---------------------------------------------------------------------
 Center     Atomic      Atomic             Coordinates (Angstroms)
 Number     Number       Type             X           Y           Z
 ---------------------------------------------------------------------
      1          6           0       -3.168398    0.177301    0.000000
      2          6           0       -1.972416    0.898191    0.000000
      3          6           0       -0.735504    0.239385    0.000000
      4          6           0       -0.699526   -1.159084    0.000000
      5          6           0       -1.890093   -1.893632   -0.000000
      6          6           0       -3.118024   -1.218234   -0.000000
      7         17           0       -4.618405   -2.234355   -0.000000
      8          1           0       -4.133173    0.699528    0.000000
      9         17           0       -1.942045    2.710020    0.000000
     10          1           0        0.198149    0.815756    0.000000
     11          1           0        0.266892   -1.682200    0.000000
     12          1           0       -1.862157   -2.990506   -0.000000
 ---------------------------------------------------------------------
                    Distance matrix (angstroms):
                    1          2          3          4          5
     1  C    0.000000
     2  C    1.396444   0.000000
     3  C    2.433686   1.401420   0.000000
     4  C    2.807357   2.419221   1.398932   0.000000
     5  C    2.433686   2.793037   2.425457   1.398932   0.000000
     6  C    1.396444   2.406590   2.793037   2.419221   1.401420
     7  Cl   2.814002   4.100501   4.603946   4.063720   2.749505
     8  H    1.097047   2.169870   3.428686   3.904404   3.428686
     9  Cl   2.814002   1.812083   2.749505   4.063720   4.603945
    10  H    3.426552   2.172130   1.097228   2.169289   3.420751
    11  H    3.906272   3.416566   2.167323   1.098916   2.167323
    12  H    3.426553   3.890260   3.420752   2.169289   1.097229
                    6          7          8          9         10
     6  C    0.000000
     7  Cl   1.812083   0.000000
     8  H    2.169870   2.973738   0.000000
     9  Cl   4.100501   5.622255   2.973738   0.000000
    10  H    3.890259   5.701085   4.332881   2.858088   0.000000
    11  H    3.416566   4.916402   5.003319   4.916402   2.498902
    12  H    2.172131   2.858089   4.332882   5.701086   4.328104
                   11         12
    11  H    0.000000
    12  H    2.498902   0.000000
 Stoichiometry    C6H4Cl2(1-,2)
 Framework group  CS[SG(C6H4Cl2)]
 Deg. of freedom    21
 Full point group                 CS      NOp   2
 Largest Abelian subgroup         CS      NOp   2
 Largest concise Abelian subgroup C1      NOp   1
                         Standard orientation:                         
 ---------------------------------------------------------------------
 Center     Atomic      Atomic             Coordinates (Angstroms)
 Number     Number       Type             X           Y           Z
 ---------------------------------------------------------------------
      1          6           0        0.736038    0.000000   -0.000000
      2          6           0        0.027422   -1.203295    0.000000
      3          6           0       -1.373966   -1.212728    0.000000
      4          6           0       -2.071318   -0.000000    0.000000
      5          6           0       -1.373966    1.212728   -0.000000
      6          6           0        0.027422    1.203295   -0.000000
      7         17           0        0.863197    2.811128   -0.000000
      8          1           0        1.833085    0.000000   -0.000000
      9         17           0        0.863197   -2.811127    0.000000
     10          1           0       -1.920677   -2.164052    0.000000
     11          1           0       -3.170234   -0.000000    0.000000
     12          1           0       -1.920678    2.164052   -0.000000
 ---------------------------------------------------------------------
 Rotational constants (GHZ):           2.8705758           0.7994416           0.6252989
 Standard basis: 6-311++G(d,p) (5D, 7F)
 There are   172 symmetry adapted cartesian basis functions of A'  symmetry.
 There are    56 symmetry adapted cartesian basis functions of A"  symmetry.
 There are   164 symmetry adapted basis functions of A'  symmetry.
 There are    56 symmetry adapted basis functions of A"  symmetry.
   220 basis functions,   358 primitive gaussians,   228 cartesian basis functions
    38 alpha electrons       37 beta electrons
       nuclear repulsion energy       444.0614266310 Hartrees.
 NAtoms=   12 NActive=   12 NUniq=   12 SFac= 1.00D+00 NAtFMM=   60 NAOKFM=F Big=F
 Integral buffers will be    131072 words long.
 Raffenetti 2 integral format.
 Two-electron integral symmetry is turned on.
 One-electron integrals computed using PRISM.
 NBasis=   220 RedAO= T EigKep=  1.23D-06  NBF=   164    56
 NBsUse=   220 1.00D-06 EigRej= -1.00D+00 NBFU=   164    56
 Initial guess from the checkpoint file:  "frequency_chks/13ClBzAnionRadical_Freq.chk"
 B after Tr=    -0.000000   -0.000000   -0.000000
         Rot=    1.000000    0.000000    0.000000    0.000000 Ang=   0.00 deg.
 Initial guess orbital symmetries:
 Alpha Orbitals:
       Occupied  (A') (A') (A') (A') (A') (A') (A') (A') (A') (A')
                 (A') (A') (A") (A') (A') (A") (A") (A') (A') (A")
                 (A") (A') (A') (A") (A") (A") (A') (A') (A') (A')
                 (A') (A') (A') (A') (A') (A') (A') (A')
       Virtual   (A') (A') (A') (A') (A') (A') (A') (A') (A') (A')
                 (A') (A') (A') (A') (A') (A') (A') (A') (A') (A')
                 (A') (A') (A') (A') (A') (A') (A') (A') (A') (A')
                 (A') (A') (A') (A') (A') (A') (A') (A') (A') (A')
                 (A') (A') (A') (A') (A') (A') (A') (A') (A') (A')
                 (A') (A') (A') (A') (A') (A') (A') (A') (A') (A')
                 (A') (A') (A') (A') (A') (A') (A') (A') (A') (A')
                 (A') (A') (A') (A') (A') (A') (A') (A') (A') (A')
                 (A') (A') (A') (A') (A') (A') (A') (A') (A') (A')
                 (A') (A') (A') (A') (A') (A') (A') (A') (A') (A')
                 (A') (A') (A') (A') (A') (A') (A') (A') (A') (A')
                 (A') (A') (A') (A') (A') (A') (A') (A') (A') (A')
                 (A') (A') (A') (A') (A') (A') (A') (A') (A') (A')
                 (A') (A') (A') (A') (A") (A") (A") (A") (A") (A")
                 (A") (A") (A") (A") (A") (A") (A") (A") (A") (A")
                 (A") (A") (A") (A") (A") (A") (A") (A") (A") (A")
                 (A") (A") (A") (A") (A") (A") (A") (A") (A") (A")
                 (A") (A") (A") (A") (A") (A") (A") (A") (A") (A")
                 (A") (A")
 Beta  Orbitals:
       Occupied  (A') (A') (A') (A') (A') (A') (A') (A') (A') (A')
                 (A') (A') (A") (A') (A') (A") (A") (A') (A') (A")
                 (A") (A") (A") (A') (A') (A") (A') (A') (A') (A')
                 (A') (A') (A') (A') (A') (A') (A')
       Virtual   (A') (A') (A') (A') (A') (A') (A') (A') (A') (A')
                 (A') (A') (A') (A') (A') (A') (A') (A') (A') (A')
                 (A') (A') (A') (A') (A') (A') (A') (A') (A') (A')
                 (A') (A') (A') (A') (A') (A') (A') (A') (A') (A')
                 (A') (A') (A') (A') (A') (A') (A') (A') (A') (A')
                 (A') (A') (A') (A') (A') (A') (A') (A') (A') (A')
                 (A') (A') (A') (A') (A') (A') (A') (A') (A') (A')
                 (A') (A') (A') (A') (A') (A') (A') (A') (A') (A')
                 (A') (A') (A') (A') (A') (A') (A') (A') (A') (A')
                 (A') (A') (A') (A') (A') (A') (A') (A') (A') (A')
                 (A') (A') (A') (A') (A') (A') (A') (A') (A') (A')
                 (A') (A') (A') (A') (A') (A') (A') (A') (A') (A')
                 (A') (A') (A') (A') (A') (A') (A') (A') (A') (A')
                 (A') (A') (A') (A') (A') (A") (A") (A") (A") (A")
                 (A") (A") (A") (A") (A") (A") (A") (A") (A") (A")
                 (A") (A") (A") (A") (A") (A") (A") (A") (A") (A")
                 (A") (A") (A") (A") (A") (A") (A") (A") (A") (A")
                 (A") (A") (A") (A") (A") (A") (A") (A") (A") (A")
                 (A") (A") (A")
 Initial guess <Sx>= 0.0000 <Sy>= 0.0000 <Sz>= 0.5000 <S**2>= 0.7500 S= 0.5000
 Keep R1 and R2 ints in memory in symmetry-blocked form, NReq=469802474.
 Requested convergence on RMS density matrix=1.00D-08 within 128 cycles.
 Requested convergence on MAX density matrix=1.00D-06.
 Requested convergence on             energy=1.00D-06.
 No special actions if energy rises.
 Rare condition: small coef for last iteration:  0.000D+00
 Rare condition: small coef for last iteration:  0.000D+00
 Rare condition: small coef for last iteration:  0.000D+00
 Rare condition: small coef for last iteration:  0.000D+00
 Rare condition: small coef for last iteration:  0.000D+00
 Rare condition: small coef for last iteration:  0.000D+00
 Rare condition: small coef for last iteration:  0.000D+00
 Rare condition: small coef for last iteration:  0.000D+00
 Rare condition: small coef for last iteration:  0.000D+00
 SCF Done:  E(UM062X) =  -1151.36753181     A.U. after   75 cycles
            NFock= 75  Conv=0.42D-08     -V/T= 2.0028
 <Sx>= 0.0000 <Sy>= 0.0000 <Sz>= 0.5000 <S**2>= 0.7507 S= 0.5003
 <L.S>=  0.00000000000    
 Annihilation of the first spin contaminant:
 S**2 before annihilation     0.7507,   after     0.7500

 **********************************************************************

            Population analysis using the SCF Density.

 **********************************************************************

 Orbital symmetries:
 Alpha Orbitals:
       Occupied  (A') (A') (A') (A') (A') (A') (A') (A') (A') (A')
                 (A') (A') (A") (A") (A') (A') (A') (A') (A') (A')
                 (A') (A') (A') (A') (A') (A') (A') (A') (A") (A')
                 (A') (A") (A') (A") (A') (A") (A") (A')
       Virtual   (A') (A") (A') (A") (A') (A') (A') (A") (A') (A')
                 (A') (A') (A") (A") (A') (A') (A') (A") (A') (A')
                 (A") (A") (A') (A') (A') (A') (A') (A") (A") (A')
                 (A") (A') (A') (A') (A') (A') (A') (A') (A') (A')
                 (A') (A') (A') (A') (A') (A') (A') (A') (A') (A')
                 (A") (A') (A") (A') (A') (A') (A") (A') (A') (A')
                 (A") (A") (A') (A") (A") (A') (A") (A') (A') (A')
                 (A') (A') (A') (A') (A') (A") (A') (A') (A') (A")
                 (A') (A') (A') (A") (A") (A') (A') (A') (A') (A')
                 (A") (A') (A") (A') (A") (A") (A') (A') (A') (A")
                 (A') (A") (A') (A') (A') (A') (A') (A") (A") (A")
                 (A') (A') (A') (A') (A") (A') (A') (A") (A") (A')
                 (A") (A') (A") (A') (A') (A') (A") (A') (A") (A")
                 (A") (A') (A') (A') (A') (A') (A') (A') (A') (A')
                 (A") (A') (A') (A') (A') (A') (A') (A") (A") (A')
                 (A") (A") (A") (A') (A') (A') (A') (A') (A') (A')
                 (A') (A') (A') (A') (A') (A') (A') (A') (A') (A')
                 (A') (A') (A') (A') (A") (A") (A') (A') (A') (A')
                 (A') (A')
 Beta  Orbitals:
       Occupied  (A') (A') (A') (A') (A') (A') (A') (A') (A') (A')
                 (A') (A') (A") (A") (A') (A') (A') (A') (A') (A')
                 (A') (A') (A') (A') (A') (A') (A') (A') (A") (A')
                 (A') (A") (A') (A") (A') (A") (A")
       Virtual   (A') (A") (A") (A') (A') (A') (A') (A") (A') (A')
                 (A') (A") (A") (A') (A') (A') (A") (A') (A') (A')
                 (A") (A') (A") (A") (A') (A') (A") (A') (A') (A')
                 (A') (A") (A') (A') (A') (A') (A') (A') (A') (A')
                 (A') (A') (A') (A') (A') (A') (A') (A') (A') (A')
                 (A') (A") (A') (A") (A') (A') (A') (A") (A') (A')
                 (A') (A") (A") (A') (A") (A") (A') (A") (A') (A')
                 (A') (A') (A') (A') (A') (A') (A") (A') (A') (A")
                 (A') (A') (A') (A") (A') (A") (A') (A') (A') (A')
                 (A') (A") (A') (A") (A') (A") (A") (A') (A') (A')
                 (A") (A') (A") (A') (A') (A') (A') (A') (A") (A")
                 (A") (A') (A') (A') (A') (A") (A') (A') (A") (A")
                 (A') (A") (A') (A") (A') (A') (A') (A") (A') (A")
                 (A") (A") (A') (A') (A') (A') (A') (A') (A') (A')
                 (A') (A") (A') (A') (A') (A') (A') (A') (A") (A")
                 (A') (A") (A") (A") (A') (A') (A') (A') (A') (A')
                 (A') (A') (A') (A') (A') (A') (A') (A') (A') (A')
                 (A') (A') (A') (A') (A') (A") (A") (A') (A') (A')
                 (A') (A') (A')
 The electronic state is 2-A'.
 Alpha  occ. eigenvalues -- -102.57739-102.57739 -10.51552 -10.51551 -10.46950
 Alpha  occ. eigenvalues --  -10.45220 -10.45214 -10.44823  -9.71885  -9.71885
 Alpha  occ. eigenvalues --   -7.44407  -7.44407  -7.43736  -7.43736  -7.43734
 Alpha  occ. eigenvalues --   -7.43734  -0.89743  -0.85771  -0.81407  -0.74453
 Alpha  occ. eigenvalues --   -0.72046  -0.59290  -0.57563  -0.49126  -0.44343
 Alpha  occ. eigenvalues --   -0.42470  -0.39506  -0.39001  -0.37353  -0.32350
 Alpha  occ. eigenvalues --   -0.32201  -0.32158  -0.28240  -0.28148  -0.27961
 Alpha  occ. eigenvalues --   -0.21081  -0.19756   0.04505
 Alpha virt. eigenvalues --    0.10580   0.10904   0.10948   0.10953   0.11197
 Alpha virt. eigenvalues --    0.12413   0.13824   0.16233   0.16867   0.17867
 Alpha virt. eigenvalues --    0.17873   0.18531   0.18906   0.18965   0.20802
 Alpha virt. eigenvalues --    0.21453   0.21526   0.22079   0.22114   0.22792
 Alpha virt. eigenvalues --    0.23588   0.24162   0.24938   0.25037   0.25161
 Alpha virt. eigenvalues --    0.26356   0.26525   0.26811   0.29741   0.30275
 Alpha virt. eigenvalues --    0.30897   0.30900   0.31937   0.32192   0.33623
 Alpha virt. eigenvalues --    0.34039   0.35488   0.36730   0.36974   0.38310
 Alpha virt. eigenvalues --    0.39457   0.40484   0.41178   0.41845   0.45040
 Alpha virt. eigenvalues --    0.45317   0.47034   0.47671   0.55141   0.55933
 Alpha virt. eigenvalues --    0.57942   0.58847   0.59287   0.61368   0.61711
 Alpha virt. eigenvalues --    0.62342   0.66923   0.67468   0.68175   0.68438
 Alpha virt. eigenvalues --    0.70794   0.72830   0.73916   0.74384   0.74827
 Alpha virt. eigenvalues --    0.75709   0.80291   0.81286   0.82860   0.85273
 Alpha virt. eigenvalues --    0.85786   0.89562   0.91532   0.96990   0.97602
 Alpha virt. eigenvalues --    0.98353   0.99698   1.00277   1.01578   1.02152
 Alpha virt. eigenvalues --    1.02360   1.02884   1.03238   1.03559   1.04024
 Alpha virt. eigenvalues --    1.07406   1.08374   1.10411   1.11064   1.13992
 Alpha virt. eigenvalues --    1.15010   1.17077   1.19250   1.25771   1.25830
 Alpha virt. eigenvalues --    1.26404   1.33722   1.34839   1.38000   1.38959
 Alpha virt. eigenvalues --    1.44400   1.45703   1.55802   1.61983   1.64874
 Alpha virt. eigenvalues --    1.67791   1.69666   1.70501   1.74677   1.75303
 Alpha virt. eigenvalues --    1.80231   1.82520   1.82603   1.88597   1.88859
 Alpha virt. eigenvalues --    2.02502   2.02643   2.04141   2.04570   2.06103
 Alpha virt. eigenvalues --    2.09623   2.10343   2.13081   2.14145   2.17220
 Alpha virt. eigenvalues --    2.19668   2.32739   2.34127   2.40156   2.43132
 Alpha virt. eigenvalues --    2.44497   2.44716   2.53178   2.53506   2.56962
 Alpha virt. eigenvalues --    2.61310   2.62922   2.65961   2.66465   2.74412
 Alpha virt. eigenvalues --    2.80363   2.82585   2.85072   2.85802   2.86545
 Alpha virt. eigenvalues --    2.90622   2.92257   2.94068   2.94250   2.97414
 Alpha virt. eigenvalues --    3.03486   3.04023   3.22325   3.27092   3.28150
 Alpha virt. eigenvalues --    3.35155   3.47717   3.50489   3.62556   3.68800
 Alpha virt. eigenvalues --    3.85784   3.94323   4.14476   4.23291   4.25012
 Alpha virt. eigenvalues --    4.93430  10.03231  10.06744  23.65177  24.04166
 Alpha virt. eigenvalues --   24.09362  24.20649  24.21922  24.31109  26.02472
 Alpha virt. eigenvalues --   26.02533  26.27211  26.35919  26.75102  26.85697
 Alpha virt. eigenvalues --  216.12841 216.16998
  Beta  occ. eigenvalues -- -102.57712-102.57712 -10.51510 -10.51510 -10.46950
  Beta  occ. eigenvalues --  -10.45192 -10.45186 -10.44759  -9.71875  -9.71875
  Beta  occ. eigenvalues --   -7.44354  -7.44354  -7.43721  -7.43721  -7.43718
  Beta  occ. eigenvalues --   -7.43718  -0.89642  -0.85643  -0.81289  -0.74370
  Beta  occ. eigenvalues --   -0.71951  -0.59196  -0.57462  -0.48944  -0.44290
  Beta  occ. eigenvalues --   -0.42329  -0.39443  -0.38858  -0.37296  -0.32297
  Beta  occ. eigenvalues --   -0.32133  -0.32106  -0.28188  -0.28104  -0.27895
  Beta  occ. eigenvalues --   -0.21085  -0.19701
  Beta virt. eigenvalues --    0.10309   0.10779   0.10883   0.11374   0.12427
  Beta virt. eigenvalues --    0.13924   0.15735   0.15878   0.16410   0.18065
  Beta virt. eigenvalues --    0.18426   0.18782   0.19183   0.19639   0.20745
  Beta virt. eigenvalues --    0.21399   0.22223   0.22546   0.23398   0.23528
  Beta virt. eigenvalues --    0.23582   0.24854   0.25562   0.26972   0.27228
  Beta virt. eigenvalues --    0.28558   0.28999   0.30249   0.30523   0.32171
  Beta virt. eigenvalues --    0.32947   0.33109   0.34010   0.35669   0.35795
  Beta virt. eigenvalues --    0.37041   0.38018   0.38999   0.40549   0.41321
  Beta virt. eigenvalues --    0.41406   0.42217   0.42311   0.42734   0.43716
  Beta virt. eigenvalues --    0.47441   0.48533   0.50315   0.52794   0.56827
  Beta virt. eigenvalues --    0.56969   0.58529   0.58687   0.59908   0.61821
  Beta virt. eigenvalues --    0.63163   0.63221   0.67388   0.67951   0.69578
  Beta virt. eigenvalues --    0.69831   0.71205   0.73173   0.74221   0.74878
  Beta virt. eigenvalues --    0.75437   0.75678   0.80983   0.81291   0.83370
  Beta virt. eigenvalues --    0.85843   0.87007   0.91479   0.92065   0.97070
  Beta virt. eigenvalues --    0.97910   0.98521   0.99730   1.01192   1.02252
  Beta virt. eigenvalues --    1.02924   1.03337   1.03408   1.03620   1.03812
  Beta virt. eigenvalues --    1.04078   1.07678   1.08511   1.10762   1.11524
  Beta virt. eigenvalues --    1.14231   1.15120   1.17172   1.19419   1.25893
  Beta virt. eigenvalues --    1.25910   1.26518   1.33861   1.34963   1.38070
  Beta virt. eigenvalues --    1.39123   1.44714   1.45829   1.56052   1.62199
  Beta virt. eigenvalues --    1.65412   1.67921   1.70066   1.70814   1.74799
  Beta virt. eigenvalues --    1.75475   1.80520   1.82669   1.83162   1.88902
  Beta virt. eigenvalues --    1.89223   2.02714   2.03359   2.04250   2.04658
  Beta virt. eigenvalues --    2.06407   2.09773   2.11183   2.13217   2.14646
  Beta virt. eigenvalues --    2.17418   2.19669   2.32961   2.34288   2.40323
  Beta virt. eigenvalues --    2.43296   2.44563   2.44839   2.53553   2.53712
  Beta virt. eigenvalues --    2.57331   2.61787   2.63114   2.66186   2.66598
  Beta virt. eigenvalues --    2.74591   2.80599   2.83994   2.85220   2.86481
  Beta virt. eigenvalues --    2.87108   2.91485   2.92588   2.94288   2.94434
  Beta virt. eigenvalues --    2.97659   3.03680   3.04201   3.22508   3.27299
  Beta virt. eigenvalues --    3.28364   3.35354   3.47911   3.50703   3.63009
  Beta virt. eigenvalues --    3.69066   3.86034   3.94527   4.15091   4.23610
  Beta virt. eigenvalues --    4.25373   4.93680  10.03247  10.06766  23.65213
  Beta virt. eigenvalues --   24.04229  24.09420  24.20691  24.21957  24.31164
  Beta virt. eigenvalues --   26.02580  26.02640  26.27322  26.36023  26.75267
  Beta virt. eigenvalues --   26.85871 216.12883 216.17040
          Condensed to atoms (all electrons):
               1          2          3          4          5          6
     1  C  373.030073-182.131389  11.763024 -91.273653  11.763173-182.131433
     2  C -182.131389 109.400875 -11.651953  45.983305 -13.335172  90.478866
     3  C   11.763024 -11.651953  25.013354 -16.393348   2.950277 -13.335116
     4  C  -91.273653  45.983305 -16.393348  85.825912 -16.393394  45.983337
     5  C   11.763173 -13.335172   2.950277 -16.393394  25.013349 -11.652026
     6  C -182.131433  90.478866 -13.335116  45.983337 -11.652026 109.400924
     7  Cl  -1.610479   0.600198  -0.158475   0.789462   0.610814  -0.243872
     8  H   11.115757  -5.477898   0.125548  -1.467550   0.125551  -5.477899
     9  Cl  -1.610479  -0.243874   0.610817   0.789462  -0.158475   0.600197
    10  H   19.831903  -9.694236  -0.298229 -13.457583   3.923542  -9.361302
    11  H   21.929291 -10.972188   4.611703 -24.678589   4.611714 -10.972197
    12  H   19.831882  -9.361290   3.923532 -13.457570  -0.298215  -9.694237
               7          8          9         10         11         12
     1  C   -1.610479  11.115757  -1.610479  19.831903  21.929291  19.831882
     2  C    0.600198  -5.477898  -0.243874  -9.694236 -10.972188  -9.361290
     3  C   -0.158475   0.125548   0.610817  -0.298229   4.611703   3.923532
     4  C    0.789462  -1.467550   0.789462 -13.457583 -24.678589 -13.457570
     5  C    0.610814   0.125551  -0.158475   3.923542   4.611714  -0.298215
     6  C   -0.243872  -5.477899   0.600197  -9.361302 -10.972197  -9.694237
     7  Cl  17.638353  -0.049151  -0.022541  -0.045965  -0.198320  -0.597716
     8  H   -0.049151   0.969260  -0.049151   0.395937   0.347581   0.395936
     9  Cl  -0.022541  -0.049151  17.638353  -0.597716  -0.198320  -0.045965
    10  H   -0.045965   0.395937  -0.597716   5.481808   4.303210   1.358268
    11  H   -0.198320   0.347581  -0.198320   4.303210   9.584884   4.303207
    12  H   -0.597716   0.395936  -0.045965   1.358268   4.303207   5.481802
          Atomic-Atomic Spin Densities.
               1          2          3          4          5          6
     1  C  346.545575-175.622034  12.967367 -85.863318  12.967509-175.622077
     2  C -175.622034  92.433616  -8.100215  43.686753  -9.062757  88.923071
     3  C   12.967367  -8.100215  10.222563 -15.075567   1.172870  -9.062700
     4  C  -85.863318  43.686753 -15.075567  76.402376 -15.075614  43.686783
     5  C   12.967509  -9.062757   1.172870 -15.075614  10.222559  -8.100283
     6  C -175.622077  88.923071  -9.062700  43.686783  -8.100283  92.433661
     7  Cl  -1.948039   0.691249  -0.264700   0.677450   0.779790   0.552042
     8  H   10.538480  -5.368998   0.117434  -1.418562   0.117438  -5.368998
     9  Cl  -1.948039   0.552040   0.779792   0.677450  -0.264700   0.691249
    10  H   19.760958  -9.414298  -0.926496 -13.344927   3.824811  -9.291313
    11  H   21.983221 -11.052206   4.740555 -25.168718   4.740567 -11.052215
    12  H   19.760937  -9.291301   3.824802 -13.344914  -0.926482  -9.414299
               7          8          9         10         11         12
     1  C   -1.948039  10.538480  -1.948039  19.760958  21.983221  19.760937
     2  C    0.691249  -5.368998   0.552040  -9.414298 -11.052206  -9.291301
     3  C   -0.264700   0.117434   0.779792  -0.926496   4.740555   3.824802
     4  C    0.677450  -1.418562   0.677450 -13.344927 -25.168718 -13.344914
     5  C    0.779790   0.117438  -0.264700   3.824811   4.740567  -0.926482
     6  C    0.552042  -5.368998   0.691249  -9.291313 -11.052215  -9.414299
     7  Cl   0.359915  -0.052653   0.002885  -0.045836  -0.197037  -0.584618
     8  H   -0.052653   0.483609  -0.052653   0.394912   0.347029   0.394912
     9  Cl   0.002885  -0.052653   0.359915  -0.584618  -0.197037  -0.045836
    10  H   -0.045836   0.394912  -0.584618   5.010354   4.318073   1.355054
    11  H   -0.197037   0.347029  -0.197037   4.318073   9.132517   4.318070
    12  H   -0.584618   0.394912  -0.045836   1.355054   4.318070   5.010348
 Mulliken charges and spin densities:
               1          2
     1  C   -4.507669   3.520539
     2  C    2.404756  -1.625079
     3  C   -1.161134   0.395705
     4  C    3.750210  -4.160807
     5  C   -1.161136   0.395706
     6  C    2.404757  -1.625081
     7  Cl   0.287693  -0.029551
     8  H    0.046079   0.131951
     9  Cl   0.287693  -0.029551
    10  H   -0.839636   1.056674
    11  H   -1.671977   1.912820
    12  H   -0.839636   1.056674
 Sum of Mulliken charges =  -1.00000   1.00000
 Mulliken charges and spin densities with hydrogens summed into heavy atoms:
               1          2
     1  C   -4.461590   3.652490
     2  C    2.404756  -1.625079
     3  C   -2.000770   1.452379
     4  C    2.078233  -2.247987
     5  C   -2.000771   1.452380
     6  C    2.404757  -1.625081
     7  Cl   0.287693  -0.029551
     9  Cl   0.287693  -0.029551
 Electronic spatial extent (au):  <R**2>=           1692.8280
 Charge=             -1.0000 electrons
 Dipole moment (field-independent basis, Debye):
    X=             11.7751    Y=             -0.0000    Z=             -0.0000  Tot=             11.7751
 Quadrupole moment (field-independent basis, Debye-Ang):
   XX=           -124.3268   YY=            -98.4303   ZZ=            -80.7576
   XY=              0.0000   XZ=              0.0000   YZ=              0.0000
 Traceless Quadrupole moment (field-independent basis, Debye-Ang):
   XX=            -23.1552   YY=              2.7412   ZZ=             20.4140
   XY=              0.0000   XZ=              0.0000   YZ=              0.0000
 Octapole moment (field-independent basis, Debye-Ang**2):
  XXX=            319.4055  YYY=             -0.0001  ZZZ=             -0.0000  XYY=             78.9078
  XXY=             -0.0000  XXZ=             -0.0000  XZZ=             53.1546  YZZ=             -0.0000
  YYZ=             -0.0000  XYZ=             -0.0000
 Hexadecapole moment (field-independent basis, Debye-Ang**3):
 XXXX=          -2244.4457 YYYY=          -2016.7802 ZZZZ=           -233.7114 XXXY=              0.0002
 XXXZ=              0.0000 YYYX=              0.0002 YYYZ=              0.0000 ZZZX=              0.0000
 ZZZY=              0.0000 XXYY=           -715.0265 XXZZ=           -320.0674 YYZZ=           -369.9856
 XXYZ=              0.0000 YYXZ=              0.0000 ZZXY=              0.0000
 N-N= 4.440614266310D+02 E-N=-3.619976966270D+03  KE= 1.148182937663D+03
 Symmetry A'   KE= 1.050029267476D+03
 Symmetry A"   KE= 9.815367018692D+01
 Symmetry A'   SP= 1.000000000000D+00
 Symmetry A"   SP= 1.038607151264D-13
                          Isotropic Fermi Contact Couplings
        Atom                 a.u.       MegaHertz       Gauss      10(-4) cm-1
     1  C(13)              0.00185       2.07880       0.74177       0.69341
     2  C(13)              0.03739      42.03482      14.99907      14.02131
     3  C(13)              0.02109      23.70391       8.45815       7.90677
     4  C(13)              0.05817      65.39262      23.33371      21.81263
     5  C(13)              0.02109      23.70397       8.45816       7.90679
     6  C(13)              0.03739      42.03486      14.99908      14.02132
     7  Cl(35)             0.00887       3.88981       1.38798       1.29750
     8  H(1)               0.00119       5.30101       1.89153       1.76823
     9  Cl(35)             0.00887       3.88979       1.38797       1.29750
    10  H(1)               0.00004       0.17974       0.06414       0.05996
    11  H(1)              -0.00040      -1.80844      -0.64530      -0.60323
    12  H(1)               0.00004       0.17972       0.06413       0.05995
 --------------------------------------------------------
       Center         ----  Spin Dipole Couplings  ----
                      3XX-RR        3YY-RR        3ZZ-RR
 --------------------------------------------------------
     1   Atom        0.002577      0.000930     -0.003507
     2   Atom        0.001230      0.002168     -0.003397
     3   Atom        0.002653      0.008062     -0.010715
     4   Atom        0.017922     -0.008403     -0.009519
     5   Atom        0.002653      0.008062     -0.010715
     6   Atom        0.001230      0.002168     -0.003397
     7   Atom       -0.033680      0.079376     -0.045696
     8   Atom        0.001490     -0.000051     -0.001439
     9   Atom       -0.033680      0.079376     -0.045696
    10   Atom        0.001061      0.003922     -0.004983
    11   Atom        0.012519     -0.005174     -0.007345
    12   Atom        0.001061      0.003922     -0.004983
 --------------------------------------------------------
                        XY            XZ            YZ
 --------------------------------------------------------
     1   Atom        0.000000     -0.000000     -0.000000
     2   Atom       -0.009560     -0.000000     -0.000000
     3   Atom        0.009841     -0.000000     -0.000000
     4   Atom        0.000000     -0.000000     -0.000000
     5   Atom       -0.009841     -0.000000     -0.000000
     6   Atom        0.009560     -0.000000     -0.000000
     7   Atom        0.037797      0.000000      0.000000
     8   Atom       -0.000000     -0.000000     -0.000000
     9   Atom       -0.037797      0.000000     -0.000000
    10   Atom        0.004439     -0.000000     -0.000000
    11   Atom        0.000000     -0.000000     -0.000000
    12   Atom       -0.004439     -0.000000     -0.000000
 --------------------------------------------------------


 ---------------------------------------------------------------------------------
              Anisotropic Spin Dipole Couplings in Principal Axis System
 ---------------------------------------------------------------------------------

       Atom             a.u.   MegaHertz   Gauss  10(-4) cm-1        Axes

              Baa    -0.0035    -0.471    -0.168    -0.157  0.0000  0.0000  1.0000
     1 C(13)  Bbb     0.0009     0.125     0.045     0.042 -0.0000  1.0000 -0.0000
              Bcc     0.0026     0.346     0.123     0.115  1.0000  0.0000 -0.0000
 
              Baa    -0.0079    -1.057    -0.377    -0.352  0.7242  0.6896  0.0000
     2 C(13)  Bbb    -0.0034    -0.456    -0.163    -0.152  0.0000  0.0000  1.0000
              Bcc     0.0113     1.512     0.540     0.504 -0.6896  0.7242 -0.0000
 
              Baa    -0.0107    -1.438    -0.513    -0.480  0.0000  0.0000  1.0000
     3 C(13)  Bbb    -0.0048    -0.651    -0.232    -0.217  0.7953 -0.6062  0.0000
              Bcc     0.0156     2.089     0.745     0.697  0.6062  0.7953 -0.0000
 
              Baa    -0.0095    -1.277    -0.456    -0.426  0.0000  0.0000  1.0000
     4 C(13)  Bbb    -0.0084    -1.128    -0.402    -0.376 -0.0000  1.0000 -0.0000
              Bcc     0.0179     2.405     0.858     0.802  1.0000  0.0000 -0.0000
 
              Baa    -0.0107    -1.438    -0.513    -0.480  0.0000  0.0000  1.0000
     5 C(13)  Bbb    -0.0048    -0.651    -0.232    -0.217  0.7953  0.6062  0.0000
              Bcc     0.0156     2.089     0.745     0.697 -0.6062  0.7953 -0.0000
 
              Baa    -0.0079    -1.057    -0.377    -0.352  0.7242 -0.6896  0.0000
     6 C(13)  Bbb    -0.0034    -0.456    -0.163    -0.152  0.0000  0.0000  1.0000
              Bcc     0.0113     1.512     0.540     0.504  0.6896  0.7242 -0.0000
 
              Baa    -0.0457    -2.392    -0.853    -0.798  0.0000  0.0000  1.0000
     7 Cl(35) Bbb    -0.0452    -2.363    -0.843    -0.788  0.9569 -0.2904 -0.0000
              Bcc     0.0908     4.755     1.697     1.586  0.2904  0.9569 -0.0000
 
              Baa    -0.0014    -0.768    -0.274    -0.256  0.0000  0.0000  1.0000
     8 H(1)   Bbb    -0.0001    -0.027    -0.010    -0.009  0.0000  1.0000 -0.0000
              Bcc     0.0015     0.795     0.284     0.265  1.0000 -0.0000 -0.0000
 
              Baa    -0.0457    -2.392    -0.853    -0.798  0.0000  0.0000  1.0000
     9 Cl(35) Bbb    -0.0452    -2.363    -0.843    -0.788  0.9569  0.2904  0.0000
              Bcc     0.0908     4.755     1.697     1.586 -0.2904  0.9569 -0.0000
 
              Baa    -0.0050    -2.658    -0.949    -0.887  0.0000  0.0000  1.0000
    10 H(1)   Bbb    -0.0022    -1.159    -0.414    -0.387  0.8083 -0.5887 -0.0000
              Bcc     0.0072     3.818     1.362     1.273  0.5887  0.8083 -0.0000
 
              Baa    -0.0073    -3.919    -1.398    -1.307  0.0000  0.0000  1.0000
    11 H(1)   Bbb    -0.0052    -2.760    -0.985    -0.921 -0.0000  1.0000 -0.0000
              Bcc     0.0125     6.679     2.383     2.228  1.0000  0.0000 -0.0000
 
              Baa    -0.0050    -2.658    -0.949    -0.887  0.0000  0.0000  1.0000
    12 H(1)   Bbb    -0.0022    -1.159    -0.414    -0.387  0.8083  0.5887 -0.0000
              Bcc     0.0072     3.818     1.362     1.273 -0.5887  0.8083 -0.0000
 

 ---------------------------------------------------------------------------------

 Calling FoFJK, ICntrl=      2127 FMM=F ISym2X=1 I1Cent= 0 IOpClX= 1 NMat=1 NMatS=1 NMatT=0.
 ***** Axes restored to original set *****
 -------------------------------------------------------------------
 Center     Atomic                   Forces (Hartrees/Bohr)
 Number     Number              X              Y              Z
 -------------------------------------------------------------------
      1        6          -0.013463921    0.007287913   -0.000000000
      2        6           0.013462212   -0.007668772   -0.000000000
      3        6          -0.002881535    0.002941821    0.000000000
      4        6          -0.007488872    0.004053771    0.000000000
      5        6          -0.004038737    0.000803286   -0.000000000
      6        6           0.013781914   -0.007078205    0.000000000
      7       17           0.011889456    0.015489249    0.000000000
      8        1           0.006703694   -0.003628665    0.000000000
      9       17          -0.006467627   -0.018424053   -0.000000000
     10        1          -0.005904898   -0.004012337   -0.000000000
     11        1          -0.005722296    0.003097440   -0.000000000
     12        1           0.000130610    0.007138552    0.000000000
 -------------------------------------------------------------------
 Cartesian Forces:  Max     0.018424053 RMS     0.007043209

 GradGradGradGradGradGradGradGradGradGradGradGradGradGradGradGradGradGrad
 Berny optimization.
 FormGI is forming the generalized inverse of G from B-inverse, IUseBI=4.
 Internal  Forces:  Max     0.018529871 RMS     0.006922192
 Search for a local minimum.
 Step number   1 out of a maximum of   64
 All quantities printed in internal units (Hartrees-Bohrs-Radians)
 Mixed Optimization -- RFO/linear search
 Second derivative matrix not updated -- first step.
 ITU=  0
     Eigenvalues ---    0.02083   0.02084   0.02092   0.02092   0.02103
     Eigenvalues ---    0.02104   0.02109   0.02125   0.02136   0.16000
     Eigenvalues ---    0.16000   0.16000   0.16000   0.22000   0.23490
     Eigenvalues ---    0.23497   0.25000   0.25000   0.25187   0.25187
     Eigenvalues ---    0.33802   0.33990   0.33990   0.34011   0.41660
     Eigenvalues ---    0.41882   0.45386   0.45712   0.46016   0.46111
 RFO step:  Lambda=-8.17777134D-03 EMin= 2.08301905D-02
 Linear search not attempted -- first point.
 Iteration  1 RMS(Cart)=  0.03711442 RMS(Int)=  0.00056996
 Iteration  2 RMS(Cart)=  0.00065434 RMS(Int)=  0.00002548
 Iteration  3 RMS(Cart)=  0.00000042 RMS(Int)=  0.00002548
 ClnCor:  largest displacement from symmetrization is 2.03D-11 for atom     8.
 Variable       Old X    -DE/DX   Delta X   Delta X   Delta X     New X
                                 (Linear)    (Quad)   (Total)
    R1        2.63890  -0.01308   0.00000  -0.02787  -0.02783   2.61106
    R2        2.63890  -0.01308   0.00000  -0.02787  -0.02783   2.61106
    R3        2.07312  -0.00762   0.00000  -0.02189  -0.02189   2.05123
    R4        2.64830  -0.01471   0.00000  -0.03185  -0.03184   2.61646
    R5        3.42434  -0.01853   0.00000  -0.07125  -0.07125   3.35309
    R6        2.64360  -0.01007   0.00000  -0.02154  -0.02158   2.62202
    R7        2.07346  -0.00713   0.00000  -0.02049  -0.02049   2.05297
    R8        2.64360  -0.01007   0.00000  -0.02154  -0.02158   2.62202
    R9        2.07665  -0.00651   0.00000  -0.01879  -0.01879   2.05785
   R10        2.64830  -0.01471   0.00000  -0.03185  -0.03184   2.61646
   R11        2.07346  -0.00713   0.00000  -0.02049  -0.02049   2.05297
   R12        3.42434  -0.01853   0.00000  -0.07125  -0.07125   3.35309
    A1        2.07716  -0.00743   0.00000  -0.03165  -0.03157   2.04559
    A2        2.10301   0.00372   0.00000   0.01583   0.01578   2.11880
    A3        2.10301   0.00372   0.00000   0.01583   0.01578   2.11880
    A4        2.10974   0.00693   0.00000   0.02780   0.02784   2.13758
    A5        2.13000  -0.01401   0.00000  -0.05474  -0.05476   2.07525
    A6        2.04344   0.00708   0.00000   0.02694   0.02692   2.07036
    A7        2.08592  -0.00390   0.00000  -0.01574  -0.01578   2.07014
    A8        2.09913   0.00227   0.00000   0.00979   0.00981   2.10894
    A9        2.09814   0.00163   0.00000   0.00594   0.00596   2.10410
   A10        2.09788   0.00137   0.00000   0.00753   0.00745   2.10533
   A11        2.09265  -0.00069   0.00000  -0.00376  -0.00372   2.08893
   A12        2.09265  -0.00069   0.00000  -0.00376  -0.00372   2.08893
   A13        2.08592  -0.00390   0.00000  -0.01574  -0.01578   2.07014
   A14        2.09814   0.00163   0.00000   0.00594   0.00596   2.10410
   A15        2.09913   0.00227   0.00000   0.00979   0.00981   2.10894
   A16        2.10974   0.00693   0.00000   0.02780   0.02784   2.13758
   A17        2.13000  -0.01401   0.00000  -0.05474  -0.05476   2.07525
   A18        2.04344   0.00708   0.00000   0.02694   0.02692   2.07036
    D1        0.00000  -0.00000   0.00000  -0.00000   0.00000   0.00000
    D2        3.14159   0.00000   0.00000   0.00000   0.00000   3.14159
    D3        3.14159  -0.00000   0.00000  -0.00000   0.00000   3.14159
    D4       -0.00000  -0.00000   0.00000  -0.00000   0.00000   0.00000
    D5       -0.00000  -0.00000   0.00000  -0.00000   0.00000   0.00000
    D6        3.14159  -0.00000   0.00000  -0.00000   0.00000   3.14159
    D7        3.14159  -0.00000   0.00000  -0.00000   0.00000   3.14159
    D8        0.00000   0.00000   0.00000  -0.00000   0.00000   0.00000
    D9       -0.00000   0.00000   0.00000   0.00000   0.00000   0.00000
   D10        3.14159   0.00000   0.00000   0.00000   0.00000   3.14159
   D11        3.14159   0.00000   0.00000   0.00000   0.00000   3.14159
   D12        0.00000   0.00000   0.00000   0.00000  -0.00000   0.00000
   D13        0.00000   0.00000   0.00000  -0.00000   0.00000   0.00000
   D14        3.14159  -0.00000   0.00000  -0.00000   0.00000   3.14159
   D15        3.14159  -0.00000   0.00000  -0.00000   0.00000   3.14159
   D16       -0.00000  -0.00000   0.00000  -0.00000   0.00000   0.00000
   D17       -0.00000  -0.00000   0.00000  -0.00000   0.00000   0.00000
   D18        3.14159   0.00000   0.00000   0.00000   0.00000   3.14159
   D19        3.14159  -0.00000   0.00000  -0.00000   0.00000   3.14159
   D20       -0.00000   0.00000   0.00000   0.00000   0.00000   0.00000
   D21        0.00000   0.00000   0.00000   0.00000   0.00000   0.00000
   D22        3.14159   0.00000   0.00000   0.00000   0.00000   3.14159
   D23        3.14159  -0.00000   0.00000  -0.00000   0.00000   3.14159
   D24       -0.00000   0.00000   0.00000   0.00000   0.00000   0.00000
         Item               Value     Threshold  Converged?
 Maximum Force            0.018530     0.000450     NO 
 RMS     Force            0.006922     0.000300     NO 
 Maximum Displacement     0.170899     0.001800     NO 
 RMS     Displacement     0.037157     0.001200     NO 
 Predicted change in Energy=-4.202057D-03
 GradGradGradGradGradGradGradGradGradGradGradGradGradGradGradGradGradGrad

                          Input orientation:                          
 ---------------------------------------------------------------------
 Center     Atomic      Atomic             Coordinates (Angstroms)
 Number     Number       Type             X           Y           Z
 ---------------------------------------------------------------------
      1          6           0       -3.160302    0.172919    0.000000
      2          6           0       -1.965823    0.867438    0.000000
      3          6           0       -0.736028    0.231331    0.000000
      4          6           0       -0.705511   -1.155845    0.000000
      5          6           0       -1.883636   -1.888790   -0.000000
      6          6           0       -3.088671   -1.206939   -0.000000
      7         17           0       -4.595482   -2.143920   -0.000000
      8          1           0       -4.114892    0.689632    0.000000
      9         17           0       -2.005230    2.641378    0.000000
     10          1           0        0.187118    0.804074    0.000000
     11          1           0        0.252161   -1.674227    0.000000
     12          1           0       -1.858407   -2.974882   -0.000000
 ---------------------------------------------------------------------
                    Distance matrix (angstroms):
                    1          2          3          4          5
     1  C    0.000000
     2  C    1.381715   0.000000
     3  C    2.424978   1.384568   0.000000
     4  C    2.791346   2.383708   1.387511   0.000000
     5  C    2.424978   2.757453   2.410791   1.387511   0.000000
     6  C    1.381716   2.358777   2.757453   2.383708   1.384568
     7  Cl   2.725341   3.997923   4.531799   4.013499   2.723821
     8  H    1.085465   2.156412   3.409804   3.876811   3.409804
     9  Cl   2.725341   1.774377   2.723821   4.013499   4.531799
    10  H    3.406403   2.153874   1.086385   2.153617   3.396989
    11  H    3.880316   3.373354   2.146547   1.088970   2.146547
    12  H    3.406403   3.843822   3.396989   2.153617   1.086385
                    6          7          8          9         10
     6  C    0.000000
     7  Cl   1.774377   0.000000
     8  H    2.156412   2.874019   0.000000
     9  Cl   3.997923   5.441367   2.874019   0.000000
    10  H    3.843822   5.618179   4.303532   2.860433   0.000000
    11  H    3.373354   4.870345   4.965781   4.870345   2.479154
    12  H    2.153874   2.860433   4.303532   5.618179   4.297055
                   11         12
    11  H    0.000000
    12  H    2.479154   0.000000
 Stoichiometry    C6H4Cl2(1-,2)
 Framework group  CS[SG(C6H4Cl2)]
 Deg. of freedom    21
 Full point group                 CS      NOp   2
 Largest Abelian subgroup         CS      NOp   2
 Largest concise Abelian subgroup C1      NOp   1
                         Standard orientation:                         
 ---------------------------------------------------------------------
 Center     Atomic      Atomic             Coordinates (Angstroms)
 Number     Number       Type             X           Y           Z
 ---------------------------------------------------------------------
      1          6           0        0.720313    0.000000    0.000000
      2          6           0        0.000466   -1.179388    0.000000
      3          6           0       -1.383858   -1.205396    0.000000
      4          6           0       -2.071032   -0.000000    0.000000
      5          6           0       -1.383858    1.205395    0.000000
      6          6           0        0.000466    1.179388    0.000000
      7         17           0        0.879569    2.720684    0.000000
      8          1           0        1.805779    0.000000    0.000000
      9         17           0        0.879570   -2.720684    0.000000
     10          1           0       -1.923057   -2.148528    0.000000
     11          1           0       -3.160002   -0.000000    0.000000
     12          1           0       -1.923057    2.148527    0.000000
 ---------------------------------------------------------------------
 Rotational constants (GHZ):           2.8352872           0.8490251           0.6533729
 Standard basis: 6-311++G(d,p) (5D, 7F)
 There are   172 symmetry adapted cartesian basis functions of A'  symmetry.
 There are    56 symmetry adapted cartesian basis functions of A"  symmetry.
 There are   164 symmetry adapted basis functions of A'  symmetry.
 There are    56 symmetry adapted basis functions of A"  symmetry.
   220 basis functions,   358 primitive gaussians,   228 cartesian basis functions
    38 alpha electrons       37 beta electrons
       nuclear repulsion energy       451.3803874197 Hartrees.
 NAtoms=   12 NActive=   12 NUniq=   12 SFac= 1.00D+00 NAtFMM=   60 NAOKFM=F Big=F
 Integral buffers will be    131072 words long.
 Raffenetti 2 integral format.
 Two-electron integral symmetry is turned on.
 One-electron integrals computed using PRISM.
 NBasis=   220 RedAO= T EigKep=  1.08D-06  NBF=   164    56
 NBsUse=   220 1.00D-06 EigRej= -1.00D+00 NBFU=   164    56
 Initial guess from the checkpoint file:  "frequency_chks/13ClBzAnionRadical_Freq.chk"
 B after Tr=    -0.000000   -0.000000    0.000000
         Rot=    1.000000    0.000000   -0.000000   -0.000000 Ang=   0.00 deg.
 Initial guess orbital symmetries:
 Alpha Orbitals:
       Occupied  (A') (A') (A') (A') (A') (A') (A') (A') (A') (A')
                 (A') (A') (A") (A") (A') (A') (A') (A') (A') (A')
                 (A') (A') (A') (A') (A') (A') (A') (A') (A") (A')
                 (A') (A") (A') (A") (A') (A") (A") (A')
       Virtual   (A') (A") (A') (A") (A') (A') (A') (A") (A') (A')
                 (A') (A') (A") (A") (A') (A') (A') (A") (A') (A')
                 (A") (A") (A') (A') (A') (A') (A') (A") (A") (A')
                 (A") (A') (A') (A') (A') (A') (A') (A') (A') (A')
                 (A') (A') (A') (A') (A') (A') (A') (A') (A') (A')
                 (A") (A') (A") (A') (A') (A') (A") (A') (A') (A')
                 (A") (A") (A') (A") (A") (A') (A") (A') (A') (A')
                 (A') (A') (A') (A') (A') (A") (A') (A') (A') (A")
                 (A') (A') (A') (A") (A") (A') (A') (A') (A') (A')
                 (A") (A') (A") (A') (A") (A") (A') (A') (A') (A")
                 (A') (A") (A') (A') (A') (A') (A') (A") (A") (A")
                 (A') (A') (A') (A') (A") (A') (A') (A") (A") (A')
                 (A") (A') (A") (A') (A') (A') (A") (A') (A") (A")
                 (A") (A') (A') (A') (A') (A') (A') (A') (A') (A')
                 (A") (A') (A') (A') (A') (A') (A') (A") (A") (A')
                 (A") (A") (A") (A') (A') (A') (A') (A') (A') (A')
                 (A') (A') (A') (A') (A') (A') (A') (A') (A') (A')
                 (A') (A') (A') (A') (A") (A") (A') (A') (A') (A')
                 (A') (A')
 Beta  Orbitals:
       Occupied  (A') (A') (A') (A') (A') (A') (A') (A') (A') (A')
                 (A') (A') (A") (A") (A') (A') (A') (A') (A') (A')
                 (A') (A') (A') (A') (A') (A') (A') (A') (A") (A')
                 (A') (A") (A') (A") (A') (A") (A")
       Virtual   (A') (A") (A") (A') (A') (A') (A') (A") (A') (A')
                 (A') (A") (A") (A') (A') (A') (A") (A') (A') (A')
                 (A") (A') (A") (A") (A') (A') (A") (A') (A') (A')
                 (A') (A") (A') (A') (A') (A') (A') (A') (A') (A')
                 (A') (A') (A') (A') (A') (A') (A') (A') (A') (A')
                 (A') (A") (A') (A") (A') (A') (A') (A") (A') (A')
                 (A') (A") (A") (A') (A") (A") (A') (A") (A') (A')
                 (A') (A') (A') (A') (A') (A') (A") (A') (A') (A")
                 (A') (A') (A') (A") (A') (A") (A') (A') (A') (A')
                 (A') (A") (A') (A") (A') (A") (A") (A') (A') (A')
                 (A") (A') (A") (A') (A') (A') (A') (A') (A") (A")
                 (A") (A') (A') (A') (A') (A") (A') (A') (A") (A")
                 (A') (A") (A') (A") (A') (A') (A') (A") (A') (A")
                 (A") (A") (A') (A') (A') (A') (A') (A') (A') (A')
                 (A') (A") (A') (A') (A') (A') (A') (A') (A") (A")
                 (A') (A") (A") (A") (A') (A') (A') (A') (A') (A')
                 (A') (A') (A') (A') (A') (A') (A') (A') (A') (A')
                 (A') (A') (A') (A') (A') (A") (A") (A') (A') (A')
                 (A') (A') (A')
 Initial guess <Sx>= 0.0000 <Sy>= 0.0000 <Sz>= 0.5000 <S**2>= 0.7507 S= 0.5004
 ExpMin= 3.60D-02 ExpMax= 1.06D+05 ExpMxC= 3.62D+03 IAcc=3 IRadAn=         5 AccDes= 0.00D+00
 Harris functional with IExCor= 1009 and IRadAn=       5 diagonalized for initial guess.
 HarFok:  IExCor= 1009 AccDes= 0.00D+00 IRadAn=         5 IDoV= 1 UseB2=F ITyADJ=14
 ICtDFT=  3500011 ScaDFX=  1.000000  1.000000  1.000000  1.000000
 FoFCou: FMM=F IPFlag=           0 FMFlag=      100000 FMFlg1=           0
         NFxFlg=           0 DoJE=T BraDBF=F KetDBF=T FulRan=T
         wScrn=  0.000000 ICntrl=       500 IOpCl=  0 I1Cent=   200000004 NGrid=           0
         NMat0=    1 NMatS0=      1 NMatT0=    0 NMatD0=    1 NMtDS0=    0 NMtDT0=    0
 Petite list used in FoFCou.
 Keep R1 and R2 ints in memory in symmetry-blocked form, NReq=469802474.
 Requested convergence on RMS density matrix=1.00D-08 within 128 cycles.
 Requested convergence on MAX density matrix=1.00D-06.
 Requested convergence on             energy=1.00D-06.
 No special actions if energy rises.
 SCF Done:  E(UM062X) =  -1151.37236689     A.U. after   51 cycles
            NFock= 51  Conv=0.27D-08     -V/T= 2.0024
 <Sx>= 0.0000 <Sy>= 0.0000 <Sz>= 0.5000 <S**2>= 0.7507 S= 0.5004
 <L.S>=  0.00000000000    
 Annihilation of the first spin contaminant:
 S**2 before annihilation     0.7507,   after     0.7500
 Calling FoFJK, ICntrl=      2127 FMM=F ISym2X=1 I1Cent= 0 IOpClX= 1 NMat=1 NMatS=1 NMatT=0.
 ***** Axes restored to original set *****
 -------------------------------------------------------------------
 Center     Atomic                   Forces (Hartrees/Bohr)
 Number     Number              X              Y              Z
 -------------------------------------------------------------------
      1        6          -0.007323767    0.003964302   -0.000000000
      2        6           0.005707657    0.008570994   -0.000000000
      3        6           0.002464338    0.001488409   -0.000000000
      4        6           0.001030437   -0.000557722   -0.000000000
      5        6           0.000101268   -0.002877250   -0.000000000
      6        6          -0.004055309   -0.009465347   -0.000000000
      7       17           0.004197011    0.004652069   -0.000000000
      8        1           0.001667333   -0.000902518   -0.000000000
      9       17          -0.001600146   -0.006057745   -0.000000000
     10        1          -0.000951755   -0.000421923   -0.000000000
     11        1          -0.001069907    0.000579134   -0.000000000
     12        1          -0.000167160    0.001027596   -0.000000000
 -------------------------------------------------------------------
 Cartesian Forces:  Max     0.009465347 RMS     0.003270817

 GradGradGradGradGradGradGradGradGradGradGradGradGradGradGradGradGradGrad
 Berny optimization.
 Using GEDIIS/GDIIS optimizer.
 FormGI is forming the generalized inverse of G from B-inverse, IUseBI=4.
 Internal  Forces:  Max     0.006020713 RMS     0.001769937
 Search for a local minimum.
 Step number   2 out of a maximum of   64
 All quantities printed in internal units (Hartrees-Bohrs-Radians)
 Mixed Optimization -- RFO/linear search
 Update second derivatives using D2CorX and points    1    2
 DE= -4.84D-03 DEPred=-4.20D-03 R= 1.15D+00
 TightC=F SS=  1.41D+00  RLast= 1.66D-01 DXNew= 5.0454D-01 4.9904D-01
 Trust test= 1.15D+00 RLast= 1.66D-01 DXMaxT set to 4.99D-01
 ITU=  1  0
 Use linear search instead of GDIIS.
     Eigenvalues ---    0.02083   0.02084   0.02092   0.02092   0.02103
     Eigenvalues ---    0.02103   0.02108   0.02125   0.02136   0.16000
     Eigenvalues ---    0.16000   0.16000   0.16003   0.18562   0.22166
     Eigenvalues ---    0.23510   0.24098   0.25000   0.25093   0.25187
     Eigenvalues ---    0.33604   0.33870   0.33990   0.34015   0.41554
     Eigenvalues ---    0.41910   0.45306   0.45712   0.46106   0.54279
 RFO step:  Lambda=-5.24654680D-04 EMin= 2.08289901D-02
 Quartic linear search produced a step of  0.12624.
 Iteration  1 RMS(Cart)=  0.00962783 RMS(Int)=  0.00007658
 Iteration  2 RMS(Cart)=  0.00009869 RMS(Int)=  0.00000277
 Iteration  3 RMS(Cart)=  0.00000001 RMS(Int)=  0.00000277
 ClnCor:  largest displacement from symmetrization is 1.46D-09 for atom     9.
 Variable       Old X    -DE/DX   Delta X   Delta X   Delta X     New X
                                 (Linear)    (Quad)   (Total)
    R1        2.61106   0.00442  -0.00351   0.01317   0.00966   2.62072
    R2        2.61106   0.00442  -0.00351   0.01317   0.00966   2.62072
    R3        2.05123  -0.00190  -0.00276  -0.00445  -0.00721   2.04402
    R4        2.61646   0.00078  -0.00402   0.00441   0.00039   2.61685
    R5        3.35309  -0.00602  -0.00900  -0.02038  -0.02937   3.32371
    R6        2.62202   0.00225  -0.00272   0.00694   0.00421   2.62623
    R7        2.05297  -0.00103  -0.00259  -0.00171  -0.00429   2.04868
    R8        2.62202   0.00225  -0.00272   0.00694   0.00421   2.62623
    R9        2.05785  -0.00122  -0.00237  -0.00248  -0.00485   2.05300
   R10        2.61646   0.00078  -0.00402   0.00441   0.00039   2.61685
   R11        2.05297  -0.00103  -0.00259  -0.00171  -0.00429   2.04868
   R12        3.35309  -0.00602  -0.00900  -0.02038  -0.02937   3.32371
    A1        2.04559  -0.00012  -0.00399   0.00343  -0.00055   2.04504
    A2        2.11880   0.00006   0.00199  -0.00171   0.00027   2.11907
    A3        2.11880   0.00006   0.00199  -0.00171   0.00027   2.11907
    A4        2.13758  -0.00020   0.00351  -0.00302   0.00050   2.13808
    A5        2.07525  -0.00281  -0.00691  -0.00784  -0.01475   2.06050
    A6        2.07036   0.00301   0.00340   0.01085   0.01425   2.08461
    A7        2.07014  -0.00056  -0.00199  -0.00195  -0.00394   2.06620
    A8        2.10894   0.00013   0.00124  -0.00027   0.00097   2.10991
    A9        2.10410   0.00043   0.00075   0.00221   0.00297   2.10707
   A10        2.10533   0.00164   0.00094   0.00650   0.00743   2.11276
   A11        2.08893  -0.00082  -0.00047  -0.00325  -0.00371   2.08521
   A12        2.08893  -0.00082  -0.00047  -0.00325  -0.00371   2.08521
   A13        2.07014  -0.00056  -0.00199  -0.00195  -0.00394   2.06620
   A14        2.10410   0.00043   0.00075   0.00221   0.00297   2.10707
   A15        2.10894   0.00013   0.00124  -0.00027   0.00097   2.10991
   A16        2.13758  -0.00020   0.00351  -0.00302   0.00050   2.13808
   A17        2.07525  -0.00281  -0.00691  -0.00784  -0.01475   2.06050
   A18        2.07036   0.00301   0.00340   0.01085   0.01425   2.08461
    D1        0.00000  -0.00000   0.00000  -0.00000   0.00000   0.00000
    D2        3.14159  -0.00000   0.00000  -0.00000   0.00000   3.14159
    D3        3.14159  -0.00000   0.00000  -0.00000   0.00000   3.14159
    D4        0.00000  -0.00000   0.00000  -0.00000   0.00000   0.00000
    D5        0.00000  -0.00000   0.00000  -0.00000   0.00000   0.00000
    D6        3.14159   0.00000   0.00000   0.00000   0.00000   3.14159
    D7        3.14159   0.00000   0.00000  -0.00000   0.00000   3.14159
    D8        0.00000  -0.00000   0.00000   0.00000   0.00000   0.00000
    D9        0.00000   0.00000   0.00000   0.00000   0.00000   0.00000
   D10        3.14159   0.00000   0.00000  -0.00000   0.00000   3.14159
   D11        3.14159   0.00000   0.00000   0.00000   0.00000   3.14159
   D12        0.00000   0.00000   0.00000   0.00000   0.00000   0.00000
   D13        0.00000  -0.00000   0.00000   0.00000   0.00000   0.00000
   D14        3.14159  -0.00000   0.00000  -0.00000   0.00000   3.14159
   D15        3.14159   0.00000   0.00000   0.00000   0.00000   3.14159
   D16        0.00000   0.00000   0.00000   0.00000   0.00000   0.00000
   D17        0.00000  -0.00000   0.00000  -0.00000   0.00000   0.00000
   D18        3.14159  -0.00000   0.00000  -0.00000   0.00000   3.14159
   D19        3.14159   0.00000   0.00000  -0.00000   0.00000   3.14159
   D20        0.00000  -0.00000   0.00000  -0.00000   0.00000   0.00000
   D21        0.00000   0.00000   0.00000   0.00000   0.00000   0.00000
   D22        3.14159  -0.00000   0.00000  -0.00000   0.00000   3.14159
   D23        3.14159   0.00000   0.00000   0.00000   0.00000   3.14159
   D24        0.00000  -0.00000   0.00000   0.00000   0.00000   0.00000
         Item               Value     Threshold  Converged?
 Maximum Force            0.006021     0.000450     NO 
 RMS     Force            0.001770     0.000300     NO 
 Maximum Displacement     0.046649     0.001800     NO 
 RMS     Displacement     0.009598     0.001200     NO 
 Predicted change in Energy=-3.627258D-04
 GradGradGradGradGradGradGradGradGradGradGradGradGradGradGradGradGradGrad

                          Input orientation:                          
 ---------------------------------------------------------------------
 Center     Atomic      Atomic             Coordinates (Angstroms)
 Number     Number       Type             X           Y           Z
 ---------------------------------------------------------------------
      1          6           0       -3.160014    0.172763    0.000000
      2          6           0       -1.960925    0.869523    0.000000
      3          6           0       -0.730800    0.233600    0.000000
      4          6           0       -0.705393   -1.155908    0.000000
      5          6           0       -1.882677   -1.894408    0.000000
      6          6           0       -3.087738   -1.212179    0.000000
      7         17           0       -4.594638   -2.119234    0.000000
      8          1           0       -4.111248    0.687660    0.000000
      9         17           0       -2.025437    2.627174    0.000000
     10          1           0        0.190842    0.804458    0.000000
     11          1           0        0.250020   -1.673068    0.000000
     12          1           0       -1.856692   -2.978210    0.000000
 ---------------------------------------------------------------------
                    Distance matrix (angstroms):
                    1          2          3          4          5
     1  C    0.000000
     2  C    1.386827   0.000000
     3  C    2.429976   1.384777   0.000000
     4  C    2.791152   2.383009   1.389740   0.000000
     5  C    2.429976   2.765038   2.419759   1.389740   0.000000
     6  C    1.386827   2.367106   2.765038   2.383009   1.384777
     7  Cl   2.703959   3.983606   4.523834   4.006772   2.721265
     8  H    1.081650   2.158000   3.410807   3.872802   3.410807
     9  Cl   2.703959   1.758834   2.721265   4.006772   4.523834
    10  H    3.409879   2.152751   1.084114   2.155521   3.403433
    11  H    3.877553   3.369428   2.144152   1.086402   2.144152
    12  H    3.409879   3.849144   3.403433   2.155521   1.084114
                    6          7          8          9         10
     6  C    0.000000
     7  Cl   1.758834   0.000000
     8  H    2.158000   2.848214   0.000000
     9  Cl   3.983606   5.397145   2.848213   0.000000
    10  H    3.849145   5.607923   4.303676   2.869528   0.000000
    11  H    3.369428   4.865160   4.959203   4.865160   2.478232
    12  H    2.152751   2.869528   4.303676   5.607923   4.301276
                   11         12
    11  H    0.000000
    12  H    2.478232   0.000000
 Stoichiometry    C6H4Cl2(1-,2)
 Framework group  CS[SG(C6H4Cl2)]
 Deg. of freedom    21
 Full point group                 CS      NOp   2
 Largest Abelian subgroup         CS      NOp   2
 Largest concise Abelian subgroup C1      NOp   1
                         Standard orientation:                         
 ---------------------------------------------------------------------
 Center     Atomic      Atomic             Coordinates (Angstroms)
 Number     Number       Type             X           Y           Z
 ---------------------------------------------------------------------
      1          6           0        0.716180   -0.000000   -0.000000
      2          6           0       -0.006655   -1.183553    0.000000
      3          6           0       -1.391182   -1.209880    0.000000
      4          6           0       -2.074972    0.000000    0.000000
      5          6           0       -1.391182    1.209880    0.000000
      6          6           0       -0.006655    1.183553    0.000000
      7         17           0        0.886772    2.698573   -0.000000
      8          1           0        1.797830   -0.000000   -0.000000
      9         17           0        0.886772   -2.698573   -0.000000
     10          1           0       -1.929956   -2.150638    0.000000
     11          1           0       -3.161374    0.000000    0.000000
     12          1           0       -1.929956    2.150638    0.000000
 ---------------------------------------------------------------------
 Rotational constants (GHZ):           2.8111049           0.8603947           0.6587662
 Standard basis: 6-311++G(d,p) (5D, 7F)
 There are   172 symmetry adapted cartesian basis functions of A'  symmetry.
 There are    56 symmetry adapted cartesian basis functions of A"  symmetry.
 There are   164 symmetry adapted basis functions of A'  symmetry.
 There are    56 symmetry adapted basis functions of A"  symmetry.
   220 basis functions,   358 primitive gaussians,   228 cartesian basis functions
    38 alpha electrons       37 beta electrons
       nuclear repulsion energy       452.4819375557 Hartrees.
 NAtoms=   12 NActive=   12 NUniq=   12 SFac= 1.00D+00 NAtFMM=   60 NAOKFM=F Big=F
 Integral buffers will be    131072 words long.
 Raffenetti 2 integral format.
 Two-electron integral symmetry is turned on.
 One-electron integrals computed using PRISM.
 NBasis=   220 RedAO= T EigKep=  1.09D-06  NBF=   164    56
 NBsUse=   220 1.00D-06 EigRej= -1.00D+00 NBFU=   164    56
 Initial guess from the checkpoint file:  "frequency_chks/13ClBzAnionRadical_Freq.chk"
 B after Tr=     0.000000    0.000000    0.000000
         Rot=    1.000000    0.000000    0.000000    0.000000 Ang=   0.00 deg.
 Initial guess orbital symmetries:
 Alpha Orbitals:
       Occupied  (A') (A') (A') (A') (A') (A') (A') (A') (A') (A')
                 (A') (A') (A") (A") (A') (A') (A') (A') (A') (A')
                 (A') (A') (A') (A') (A') (A') (A') (A') (A") (A')
                 (A") (A') (A') (A") (A') (A") (A") (A')
       Virtual   (A') (A') (A") (A") (A') (A') (A') (A") (A') (A')
                 (A') (A') (A") (A") (A') (A') (A') (A") (A') (A')
                 (A") (A") (A') (A') (A') (A") (A') (A') (A") (A')
                 (A') (A") (A') (A') (A') (A') (A') (A') (A') (A')
                 (A') (A') (A') (A') (A') (A') (A') (A') (A') (A')
                 (A") (A") (A') (A') (A') (A') (A") (A') (A') (A')
                 (A") (A") (A") (A") (A') (A') (A") (A') (A') (A')
                 (A') (A') (A') (A") (A') (A') (A') (A') (A') (A")
                 (A') (A") (A') (A") (A') (A') (A') (A') (A') (A')
                 (A") (A') (A") (A') (A") (A") (A') (A') (A') (A")
                 (A') (A") (A') (A') (A') (A') (A') (A") (A") (A")
                 (A') (A') (A') (A") (A') (A') (A') (A") (A") (A')
                 (A") (A') (A") (A') (A') (A') (A") (A') (A") (A")
                 (A') (A") (A') (A') (A') (A') (A') (A') (A') (A')
                 (A") (A') (A') (A') (A') (A') (A") (A") (A') (A')
                 (A") (A") (A") (A') (A') (A') (A') (A') (A') (A')
                 (A') (A') (A') (A') (A') (A') (A') (A') (A') (A')
                 (A') (A') (A') (A') (A") (A") (A') (A') (A') (A')
                 (A') (A')
 Beta  Orbitals:
       Occupied  (A') (A') (A') (A') (A') (A') (A') (A') (A') (A')
                 (A') (A') (A") (A") (A') (A') (A') (A') (A') (A')
                 (A') (A') (A') (A') (A') (A') (A') (A') (A") (A')
                 (A") (A') (A') (A") (A') (A") (A")
       Virtual   (A') (A") (A") (A') (A') (A') (A") (A') (A') (A')
                 (A') (A") (A") (A') (A') (A') (A") (A') (A') (A")
                 (A') (A') (A") (A") (A') (A') (A") (A') (A') (A')
                 (A') (A") (A') (A') (A') (A') (A') (A') (A') (A')
                 (A') (A') (A') (A') (A') (A') (A') (A') (A') (A')
                 (A') (A") (A') (A") (A') (A') (A') (A") (A') (A')
                 (A') (A") (A") (A") (A") (A') (A') (A') (A") (A')
                 (A') (A') (A') (A') (A") (A') (A') (A') (A') (A")
                 (A") (A') (A') (A") (A') (A') (A') (A') (A') (A')
                 (A') (A") (A') (A") (A') (A") (A") (A') (A') (A')
                 (A") (A') (A") (A') (A') (A') (A') (A') (A") (A")
                 (A") (A') (A') (A') (A") (A') (A') (A') (A") (A")
                 (A') (A") (A') (A") (A') (A') (A') (A") (A') (A")
                 (A") (A') (A") (A') (A') (A') (A') (A') (A') (A')
                 (A') (A") (A') (A') (A') (A') (A') (A") (A") (A')
                 (A') (A") (A") (A") (A') (A') (A') (A') (A') (A')
                 (A') (A') (A') (A') (A') (A') (A') (A') (A') (A')
                 (A') (A') (A') (A') (A') (A") (A") (A') (A') (A')
                 (A') (A') (A')
 Initial guess <Sx>= 0.0000 <Sy>= 0.0000 <Sz>= 0.5000 <S**2>= 0.7507 S= 0.5004
 ExpMin= 3.60D-02 ExpMax= 1.06D+05 ExpMxC= 3.62D+03 IAcc=3 IRadAn=         5 AccDes= 0.00D+00
 Harris functional with IExCor= 1009 and IRadAn=       5 diagonalized for initial guess.
 HarFok:  IExCor= 1009 AccDes= 0.00D+00 IRadAn=         5 IDoV= 1 UseB2=F ITyADJ=14
 ICtDFT=  3500011 ScaDFX=  1.000000  1.000000  1.000000  1.000000
 FoFCou: FMM=F IPFlag=           0 FMFlag=      100000 FMFlg1=           0
         NFxFlg=           0 DoJE=T BraDBF=F KetDBF=T FulRan=T
         wScrn=  0.000000 ICntrl=       500 IOpCl=  0 I1Cent=   200000004 NGrid=           0
         NMat0=    1 NMatS0=      1 NMatT0=    0 NMatD0=    1 NMtDS0=    0 NMtDT0=    0
 Petite list used in FoFCou.
 Keep R1 and R2 ints in memory in symmetry-blocked form, NReq=469802474.
 Requested convergence on RMS density matrix=1.00D-08 within 128 cycles.
 Requested convergence on MAX density matrix=1.00D-06.
 Requested convergence on             energy=1.00D-06.
 No special actions if energy rises.
 SCF Done:  E(UM062X) =  -1151.37272364     A.U. after   39 cycles
            NFock= 39  Conv=0.69D-08     -V/T= 2.0024
 <Sx>= 0.0000 <Sy>= 0.0000 <Sz>= 0.5000 <S**2>= 0.7507 S= 0.5004
 <L.S>=  0.00000000000    
 Annihilation of the first spin contaminant:
 S**2 before annihilation     0.7507,   after     0.7500
 Calling FoFJK, ICntrl=      2127 FMM=F ISym2X=1 I1Cent= 0 IOpClX= 1 NMat=1 NMatS=1 NMatT=0.
 ***** Axes restored to original set *****
 -------------------------------------------------------------------
 Center     Atomic                   Forces (Hartrees/Bohr)
 Number     Number              X              Y              Z
 -------------------------------------------------------------------
      1        6           0.001266060   -0.000685321    0.000000000
      2        6          -0.000181528    0.002763246   -0.000000000
      3        6           0.000034327   -0.001357206    0.000000000
      4        6          -0.000237415    0.000128524   -0.000000000
      5        6           0.001155109    0.000713391   -0.000000000
      6        6          -0.002412825   -0.001358915    0.000000000
      7       17           0.000249077    0.000172555   -0.000000000
      8        1          -0.000299555    0.000162146    0.000000000
      9       17          -0.000008280   -0.000302905    0.000000000
     10        1           0.000199808    0.000108003   -0.000000000
     11        1           0.000216397   -0.000117135    0.000000000
     12        1           0.000018824   -0.000226382    0.000000000
 -------------------------------------------------------------------
 Cartesian Forces:  Max     0.002763246 RMS     0.000775172

 GradGradGradGradGradGradGradGradGradGradGradGradGradGradGradGradGradGrad
 Berny optimization.
 Using GEDIIS/GDIIS optimizer.
 FormGI is forming the generalized inverse of G from B-inverse, IUseBI=4.
 Internal  Forces:  Max     0.001013654 RMS     0.000387679
 Search for a local minimum.
 Step number   3 out of a maximum of   64
 All quantities printed in internal units (Hartrees-Bohrs-Radians)
 Mixed Optimization -- En-DIIS/RFO-DIIS
 Update second derivatives using D2CorX and points    1    2    3
 DE= -3.57D-04 DEPred=-3.63D-04 R= 9.84D-01
 TightC=F SS=  1.41D+00  RLast= 5.51D-02 DXNew= 8.3928D-01 1.6529D-01
 Trust test= 9.84D-01 RLast= 5.51D-02 DXMaxT set to 4.99D-01
 ITU=  1  1  0
 Use linear search instead of GDIIS.
     Eigenvalues ---    0.02083   0.02084   0.02092   0.02092   0.02103
     Eigenvalues ---    0.02103   0.02107   0.02125   0.02136   0.16000
     Eigenvalues ---    0.16000   0.16000   0.16006   0.18502   0.22134
     Eigenvalues ---    0.23510   0.25000   0.25049   0.25187   0.26661
     Eigenvalues ---    0.33829   0.33990   0.34014   0.34236   0.41584
     Eigenvalues ---    0.41892   0.45712   0.45931   0.46105   0.51837
 RFO step:  Lambda=-2.61724488D-05 EMin= 2.08288412D-02
 Quartic linear search produced a step of  0.03599.
[...]
   R10        2.61887   0.00001   0.00000   0.00005   0.00005   2.61892
   R11        2.04947  -0.00001   0.00000  -0.00003  -0.00003   2.04943
   R12        3.31984  -0.00002   0.00000  -0.00011  -0.00011   3.31973
    A1        2.05160   0.00001   0.00000   0.00007   0.00007   2.05167
    A2        2.11579  -0.00001   0.00000  -0.00003  -0.00003   2.11576
    A3        2.11579  -0.00001   0.00000  -0.00003  -0.00003   2.11576
    A4        2.13247  -0.00000   0.00000  -0.00005  -0.00005   2.13243
    A5        2.06278   0.00004   0.00000   0.00024   0.00024   2.06302
    A6        2.08794  -0.00004   0.00000  -0.00020  -0.00020   2.08774
    A7        2.06805   0.00001   0.00000   0.00006   0.00006   2.06811
    A8        2.10915  -0.00000   0.00000  -0.00004  -0.00004   2.10911
    A9        2.10598  -0.00000   0.00000  -0.00002  -0.00002   2.10597
   A10        2.11372  -0.00002   0.00000  -0.00009  -0.00009   2.11363
   A11        2.08473   0.00001   0.00000   0.00004   0.00004   2.08478
   A12        2.08473   0.00001   0.00000   0.00004   0.00004   2.08478
   A13        2.06805   0.00001   0.00000   0.00006   0.00006   2.06811
   A14        2.10598  -0.00000   0.00000  -0.00002  -0.00002   2.10597
   A15        2.10915  -0.00000   0.00000  -0.00004  -0.00004   2.10911
   A16        2.13247  -0.00000   0.00000  -0.00005  -0.00005   2.13243
   A17        2.06278   0.00004   0.00000   0.00024   0.00024   2.06302
   A18        2.08794  -0.00004   0.00000  -0.00020  -0.00020   2.08774
    D1        0.00000   0.00000   0.00000   0.00000   0.00000   0.00000
    D2        3.14159   0.00000   0.00000   0.00000   0.00000   3.14159
    D3        3.14159  -0.00000   0.00000  -0.00000   0.00000   3.14159
    D4       -0.00000  -0.00000   0.00000  -0.00000   0.00000   0.00000
    D5       -0.00000  -0.00000   0.00000  -0.00000   0.00000   0.00000
    D6        3.14159  -0.00000   0.00000  -0.00000   0.00000   3.14159
    D7        3.14159   0.00000   0.00000   0.00000   0.00000   3.14159
    D8        0.00000  -0.00000   0.00000  -0.00000   0.00000   0.00000
    D9        0.00000  -0.00000   0.00000  -0.00000  -0.00000   0.00000
   D10        3.14159  -0.00000   0.00000  -0.00000   0.00000   3.14159
   D11        3.14159  -0.00000   0.00000  -0.00000   0.00000   3.14159
   D12        0.00000  -0.00000   0.00000  -0.00000   0.00000   0.00000
   D13       -0.00000   0.00000   0.00000   0.00000   0.00000   0.00000
   D14        3.14159   0.00000   0.00000  -0.00000   0.00000   3.14159
   D15        3.14159  -0.00000   0.00000  -0.00000   0.00000   3.14159
   D16        0.00000  -0.00000   0.00000  -0.00000   0.00000   0.00000
   D17        0.00000   0.00000   0.00000   0.00000   0.00000   0.00000
   D18        3.14159   0.00000   0.00000   0.00000   0.00000   3.14159
   D19        3.14159   0.00000   0.00000   0.00000   0.00000   3.14159
   D20        0.00000   0.00000   0.00000   0.00000  -0.00000   0.00000
   D21        0.00000  -0.00000   0.00000   0.00000   0.00000   0.00000
   D22        3.14159   0.00000   0.00000   0.00000   0.00000   3.14159
   D23        3.14159  -0.00000   0.00000  -0.00000   0.00000   3.14159
   D24       -0.00000   0.00000   0.00000   0.00000   0.00000   0.00000
         Item               Value     Threshold  Converged?
 Maximum Force            0.000043     0.000450     YES
 RMS     Force            0.000015     0.000300     YES
 Maximum Displacement     0.000546     0.001800     YES
 RMS     Displacement     0.000118     0.001200     YES
 Predicted change in Energy=-2.748495D-08
 Optimization completed.
    -- Stationary point found.
                           ----------------------------
                           !   Optimized Parameters   !
                           ! (Angstroms and Degrees)  !
 --------------------------                            --------------------------
 ! Name  Definition              Value          Derivative Info.                !
 --------------------------------------------------------------------------------
 ! R1    R(1,2)                  1.3878         -DE/DX =    0.0                 !
 ! R2    R(1,6)                  1.3878         -DE/DX =    0.0                 !
 ! R3    R(1,8)                  1.0823         -DE/DX =    0.0                 !
 ! R4    R(2,3)                  1.3858         -DE/DX =    0.0                 !
 ! R5    R(2,9)                  1.7568         -DE/DX =    0.0                 !
 ! R6    R(3,4)                  1.3893         -DE/DX =    0.0                 !
 ! R7    R(3,10)                 1.0845         -DE/DX =    0.0                 !
 ! R8    R(4,5)                  1.3893         -DE/DX =    0.0                 !
 ! R9    R(4,11)                 1.0867         -DE/DX =    0.0                 !
 ! R10   R(5,6)                  1.3858         -DE/DX =    0.0                 !
 ! R11   R(5,12)                 1.0845         -DE/DX =    0.0                 !
 ! R12   R(6,7)                  1.7568         -DE/DX =    0.0                 !
 ! A1    A(2,1,6)              117.5481         -DE/DX =    0.0                 !
 ! A2    A(2,1,8)              121.226          -DE/DX =    0.0                 !
 ! A3    A(6,1,8)              121.226          -DE/DX =    0.0                 !
 ! A4    A(1,2,3)              122.1816         -DE/DX =    0.0                 !
 ! A5    A(1,2,9)              118.1885         -DE/DX =    0.0                 !
 ! A6    A(3,2,9)              119.6299         -DE/DX =    0.0                 !
 ! A7    A(2,3,4)              118.4908         -DE/DX =    0.0                 !
 ! A8    A(2,3,10)             120.8453         -DE/DX =    0.0                 !
 ! A9    A(4,3,10)             120.6639         -DE/DX =    0.0                 !
 ! A10   A(3,4,5)              121.1071         -DE/DX =    0.0                 !
 ! A11   A(3,4,11)             119.4465         -DE/DX =    0.0                 !
 ! A12   A(5,4,11)             119.4465         -DE/DX =    0.0                 !
 ! A13   A(4,5,6)              118.4908         -DE/DX =    0.0                 !
 ! A14   A(4,5,12)             120.6639         -DE/DX =    0.0                 !
 ! A15   A(6,5,12)             120.8453         -DE/DX =    0.0                 !
 ! A16   A(1,6,5)              122.1816         -DE/DX =    0.0                 !
 ! A17   A(1,6,7)              118.1885         -DE/DX =    0.0                 !
 ! A18   A(5,6,7)              119.6299         -DE/DX =    0.0                 !
 ! D1    D(6,1,2,3)              0.0            -DE/DX =    0.0                 !
 ! D2    D(6,1,2,9)            180.0            -DE/DX =    0.0                 !
 ! D3    D(8,1,2,3)            180.0            -DE/DX =    0.0                 !
 ! D4    D(8,1,2,9)              0.0            -DE/DX =    0.0                 !
 ! D5    D(2,1,6,5)              0.0            -DE/DX =    0.0                 !
 ! D6    D(2,1,6,7)            180.0            -DE/DX =    0.0                 !
 ! D7    D(8,1,6,5)            180.0            -DE/DX =    0.0                 !
 ! D8    D(8,1,6,7)              0.0            -DE/DX =    0.0                 !
 ! D9    D(1,2,3,4)              0.0            -DE/DX =    0.0                 !
 ! D10   D(1,2,3,10)           180.0            -DE/DX =    0.0                 !
 ! D11   D(9,2,3,4)            180.0            -DE/DX =    0.0                 !
 ! D12   D(9,2,3,10)             0.0            -DE/DX =    0.0                 !
 ! D13   D(2,3,4,5)              0.0            -DE/DX =    0.0                 !
 ! D14   D(2,3,4,11)           180.0            -DE/DX =    0.0                 !
 ! D15   D(10,3,4,5)           180.0            -DE/DX =    0.0                 !
 ! D16   D(10,3,4,11)            0.0            -DE/DX =    0.0                 !
 ! D17   D(3,4,5,6)              0.0            -DE/DX =    0.0                 !
 ! D18   D(3,4,5,12)           180.0            -DE/DX =    0.0                 !
 ! D19   D(11,4,5,6)           180.0            -DE/DX =    0.0                 !
 ! D20   D(11,4,5,12)            0.0            -DE/DX =    0.0                 !
 ! D21   D(4,5,6,1)              0.0            -DE/DX =    0.0                 !
 ! D22   D(4,5,6,7)            180.0            -DE/DX =    0.0                 !
 ! D23   D(12,5,6,1)           180.0            -DE/DX =    0.0                 !
 ! D24   D(12,5,6,7)             0.0            -DE/DX =    0.0                 !
 --------------------------------------------------------------------------------
 GradGradGradGradGradGradGradGradGradGradGradGradGradGradGradGradGradGrad


 ----------------------------------------------------------------------

 Electric dipole moment (input orientation):
 (Debye = 10**-18 statcoulomb cm , SI units = C m)
                  (au)            (Debye)         (10**-30 SI)
   Tot        0.479689D+01      0.121925D+02      0.406697D+02
   x         -0.421853D+01     -0.107224D+02     -0.357661D+02
   y          0.228346D+01      0.580398D+01      0.193600D+02
   z          0.000000D+00      0.000000D+00      0.000000D+00

 Dipole polarizability, Alpha (input orientation).
 (esu units = cm**3 , SI units = C**2 m**2 J**-1)
 Alpha(0;0):
               (au)            (10**-24 esu)      (10**-40 SI)
   iso        0.116043D+04      0.171958D+03      0.191329D+03
   aniso      0.181981D+04      0.269669D+03      0.300047D+03
   xx         0.105804D+04      0.156785D+03      0.174447D+03
   yx         0.708027D+03      0.104919D+03      0.116738D+03
   yy         0.198282D+04      0.293823D+03      0.326922D+03
   zx         0.000000D+00      0.000000D+00      0.000000D+00
   zy         0.000000D+00      0.000000D+00      0.000000D+00
   zz         0.440424D+03      0.652640D+02      0.726160D+02

 ----------------------------------------------------------------------

 Dipole orientation:
     6         -1.21650731         -2.24740671          5.40276217
     6         -0.14898347         -0.27523587          4.04323169
     6         -0.12819100         -0.23682333          1.42472229
     6         -1.21650731         -2.24740671          0.13405093
     6         -2.30482362         -4.25799010          1.42472229
     6         -2.28403115         -4.21957755          4.04323169
    17         -3.64450071         -6.73294381          5.73244572
     1         -1.21650731         -2.24740671          7.44809872
    17          1.21148609          2.23813038          5.73244572
     1          0.71764711          1.32579961          0.40341003
     1         -1.21650731         -2.24740671         -1.91960817
     1         -3.15066173         -5.82061304          0.40341003

 Electric dipole moment (dipole orientation):
 (Debye = 10**-18 statcoulomb cm , SI units = C m)
                  (au)            (Debye)         (10**-30 SI)
   Tot        0.479689D+01      0.121925D+02      0.406697D+02
   x          0.000000D+00      0.000000D+00      0.000000D+00
   y          0.000000D+00      0.000000D+00      0.000000D+00
   z          0.479689D+01      0.121925D+02      0.406697D+02

 Dipole polarizability, Alpha (dipole orientation).
 (esu units = cm**3 , SI units = C**2 m**2 J**-1)
 Alpha(0;0):
               (au)            (10**-24 esu)      (10**-40 SI)
   iso        0.116043D+04      0.171958D+03      0.191329D+03
   aniso      0.181981D+04      0.269669D+03      0.300047D+03
   xx         0.876782D+03      0.129926D+03      0.144562D+03
   yx         0.806141D+03      0.119458D+03      0.132915D+03
   yy         0.192971D+04      0.285953D+03      0.318166D+03
   zx         0.000000D+00      0.000000D+00      0.000000D+00
   zy         0.108757D-04      0.161161D-05      0.179316D-05
   zz         0.674790D+03      0.999936D+02      0.111258D+03

 ----------------------------------------------------------------------
 1\1\GINC-SH03-01N15\Freq\UM062X\6-311++G(d,p)\C6H4Cl2(1-,2)\JLAPIER\09
 -Dec-2025\0\\#N Geom=AllCheck Guess=TCheck SCRF=Check GenChk UM062X/6-
 311++G(d,p) Freq\\2-Chloro-Benzene Anion Radical (13)\\-1,2\C,-3.15805
 25637,0.1717010734,0.\C,-1.960453247,0.872857751,0.\C,-0.7308643558,0.
 2335717572,0.\C,-0.7061317544,-1.1555084487,0.\C,-1.8826887361,-1.8943
 380563,0.\C,-3.0902718238,-1.2143979783,0.\Cl,-4.596317469,-2.11889432
 66,0.\H,-4.1098988572,0.6869295667,0.\Cl,-2.026639915,2.6283936961,0.\
 H,0.1920259872,0.8032035477,0.\H,0.2495876371,-1.6728334259,0.\H,-1.85
 49948923,-2.9785151695,0.\\Version=ES64L-G16RevB.01\State=2-A1\HF=-115
 1.3727432\S2=0.750754\S2-1=0.\S2A=0.750001\RMSD=5.234e-09\RMSF=2.719e-
 05\ZeroPoint=0.0823769\Thermal=0.0887669\Dipole=-4.218525,2.2834614,0.
 \DipoleDeriv=0.5406282,-0.1542774,0.,-0.1542778,0.3391209,0.,0.,0.,-0.
 851432,-0.224094,-0.0626578,0.,-0.0277768,0.7033408,0.,0.,0.,0.1443241
 ,0.0971349,0.0102065,0.,-0.0192926,-0.5468196,0.,0.,0.,0.7523125,-0.23
 43511,-0.0260101,0.,-0.0260082,-0.2683213,0.,0.,0.,0.7966366,-0.350129
 8,-0.3113872,0.,-0.2818869,-0.0995552,0.,0.,0.,0.7523128,0.4674583,0.4
 238534,0.,0.3889703,0.0117883,0.,0.,0.,0.1443243,-0.23398,0.2540841,0.
 ,-0.0209933,0.2595184,0.,0.,0.,0.0456264,-0.0728319,0.0563892,0.,0.056
 3891,0.00082,0.,0.,0.,-0.1398449,0.0052591,0.1352453,0.,0.4103232,0.02
 02778,0.,0.,0.,0.0456268,-0.496383,-0.5888545,0.,0.1264578,0.0246196,0
 .,0.,0.,-0.8190436,-0.5792507,-0.239818,0.,-0.2398185,-0.8924851,0.,0.
 ,0.,-1.0517991,0.0805402,0.5032265,0.,-0.2120858,-0.5523044,0.,0.,0.,-
 0.819044\Polar=1058.0405081,708.0267986,1982.8168369,0.,0.,440.4235443
 \Quadrupole=-11.9624313,-2.3878797,14.3503111,7.3304637,0.,0.\PG=C02V 
 [C2(H1C1C1H1),SGV(C4H2Cl2)]\NImag=0\\0.75430216,-0.04197305,0.69947990
 ,0.,0.,0.16012799,-0.29918027,-0.05587350,0.,0.67649175,-0.13152685,-0
 .16351525,0.,0.01043161,0.49451536,0.,0.,-0.08636699,0.,0.,0.15386541,
 -0.05614077,-0.02994699,0.,-0.30166666,0.11218342,0.,0.72933818,0.0299
 6438,0.07310417,0.,0.04165270,-0.15263879,0.,0.03974546,0.69800883,0.,
 0.,0.01633551,0.,0.,-0.07903568,0.,0.,0.15254055,-0.01707052,-0.037207
 42,0.,0.04084695,0.02634271,0.,-0.13556902,0.03801652,0.,0.72863881,-0
 .03720746,-0.06566831,0.,0.09918782,-0.02053873,0.,-0.03417909,-0.3523
 6800,0.,-0.02188354,0.70005601,0.,0.,-0.00635476,0.,0.,0.00233114,0.,0
 .,-0.08021750,0.,0.,0.19503272,0.03445440,0.08912903,0.,-0.08697663,-0
 .00574683,0.,0.04564751,-0.07864951,0.,-0.28930601,-0.06238389,0.,0.67
 098385,0.02921762,-0.01749100,0.,-0.00129413,0.00091546,0.,-0.02475548
 ,-0.02188276,0.,-0.13457948,-0.19863100,0.,0.00163624,0.75636316,0.,0.
 ,0.01633549,0.,0.,-0.00558324,0.,0.,0.01389381,0.,0.,-0.08021751,0.,0.
 ,0.15254055,-0.11828247,-0.01338870,0.,0.04665392,-0.01453418,0.,-0.02
 213918,0.03659629,0.,-0.05965489,-0.03929160,0.,-0.26762326,0.13441600
 ,0.,0.53937144,0.06226470,-0.34441304,0.,-0.09702646,-0.02620252,0.,0.
 04104900,-0.06392199,0.,0.03355349,0.07996311,0.,0.06388529,-0.1866822
 0,0.,-0.07911699,0.63163567,0.,0.,-0.08636700,0.,0.,0.01644966,0.,0.,-
 0.00558324,0.,0.,0.00233112,0.,0.,-0.07903568,0.,0.,0.15386541,-0.0141
 9290,-0.01086805,0.,0.00132570,-0.00517173,0.,-0.00289209,-0.00317695,
 0.,-0.00499883,0.00858057,0.,-0.03944047,-0.02081618,0.,-0.11187495,-0
 .04785488,0.,0.16743882,-0.03747996,-0.02016096,0.,0.00455334,-0.00540
 957,0.,-0.00305378,0.00002490,0.,-0.00165083,0.00013945,0.,0.00069321,
 0.00672811,0.,-0.04535062,-0.06861360,0.,0.08083825,0.08569112,0.,0.,0
 .00382543,0.,0.,0.00405644,0.,0.,0.00125687,0.,0.,0.00379579,0.,0.,0.0
 0441932,0.,0.,-0.02164294,0.,0.,0.01178261,-0.28058108,0.12255523,0.,-
 0.01708537,0.01252252,0.,-0.00373021,-0.00393433,0.,-0.00031262,-0.000
 61306,0.,0.00109221,0.00031334,0.,0.00347872,-0.00144874,0.,-0.0005084
 4,-0.00161890,0.,0.29573351,0.12255523,-0.12050779,0.,-0.01487845,0.01
 071062,0.,-0.00283602,-0.00127253,0.,-0.00061306,-0.00111336,0.,-0.000
 78497,-0.00609496,0.,0.02595222,-0.00985347,0.,0.00137815,0.00128160,0
 .,-0.13001365,0.12591856,0.,0.,-0.03238815,0.,0.,0.00100420,0.,0.,0.00
 339081,0.,0.,0.00708313,0.,0.,0.00339081,0.,0.,0.00100420,0.,0.,-0.003
 05735,0.,0.,0.02499876,0.00375766,-0.02575706,0.,-0.03887737,0.0023216
 0,0.,0.00213710,0.02784611,0.,-0.00456931,-0.00137032,0.,0.00200528,0.
 00014452,0.,-0.00311275,0.00165475,0.,-0.00050450,-0.00109385,0.,0.000
 85663,-0.00072741,0.,0.03611477,0.00085484,-0.03811150,0.,-0.00018265,
 -0.14161118,0.,0.00633672,-0.03484946,0.,0.00886108,-0.00029005,0.,0.0
 0002135,-0.00487246,0.,-0.00807032,-0.00097112,0.,0.00356830,0.0011114
 8,0.,0.00226963,-0.00008347,0.,-0.00492501,0.21701517,0.,0.,0.00382542
 ,0.,0.,-0.02164294,0.,0.,0.00441932,0.,0.,0.00379578,0.,0.,0.00125687,
 0.,0.,0.00405644,0.,0.,-0.00081577,0.,0.,-0.00305735,0.,0.,0.01178261,
 -0.00281609,0.00289842,0.,-0.01953706,-0.01063280,0.,-0.26000403,-0.12
 516971,0.,0.00867709,0.00030531,0.,0.00079360,-0.00029880,0.,-0.001368
 29,0.00011425,0.,0.00168852,0.00087429,0.,0.00017661,-0.00101177,0.,0.
 00139272,-0.00388325,0.,0.27286233,0.00203220,-0.00214733,0.,0.0137393
 7,0.01118798,0.,-0.12723552,-0.13236918,0.,-0.02502320,-0.01159009,0.,
 0.00046960,-0.00546239,0.,0.00090640,-0.00126561,0.,0.00009718,0.00032
 414,0.,0.00107395,0.00047535,0.,0.00110047,-0.00000142,0.,0.13511532,0
 .13893072,0.,0.,0.00651278,0.,0.,0.00201899,0.,0.,-0.03531579,0.,0.,-0
 .00205408,0.,0.,0.00580999,0.,0.,0.00307299,0.,0.,0.00052048,0.,0.,-0.
 00066142,0.,0.,-0.00391156,0.,0.,0.02846097,0.00035441,-0.00043216,0.,
 -0.00023138,0.00316230,0.,0.00868932,-0.00044543,0.,-0.27246721,0.1157
 6681,0.,-0.01665492,0.00935476,0.,-0.00602785,-0.00395122,0.,0.0022697
 4,0.00199462,0.,0.00052248,-0.00021240,0.,0.00051246,-0.00403279,0.,-0
 .00201364,-0.00095095,0.,0.28413936,-0.00043217,-0.00021009,0.,-0.0001
 6575,-0.00654305,0.,0.02590621,-0.01083652,0.,0.11576680,-0.12126051,0
 .,-0.01699687,0.01450770,0.,-0.00062316,-0.00074658,0.,-0.00288516,-0.
 00081860,0.,-0.00021240,0.00024506,0.,0.00084700,0.00093868,0.,0.00037
 378,0.00177604,0.,-0.12253485,0.12409269,0.,0.,-0.00199852,0.,0.,0.009
 83003,0.,0.,0.00250537,0.,0.,-0.04347175,0.,0.,0.00250538,0.,0.,0.0098
 3003,0.,0.,-0.00022930,0.,0.,-0.00104621,0.,0.,-0.00022930,0.,0.,-0.00
 313188,0.,0.,0.02856805,-0.00460457,0.00086421,0.,-0.00176358,0.000648
 26,0.,-0.00367016,-0.00244553,0.,0.00578555,-0.02691157,0.,-0.05497556
 ,0.00666158,0.,0.00057955,0.02687685,0.,0.00168939,0.00129421,0.,0.000
 35756,0.00119212,0.,0.00028731,-0.00081790,0.,0.00014824,-0.00132483,0
 .,0.00090723,0.00095657,0.,0.05525904,0.00173043,-0.00035885,0.,-0.000
 14390,-0.00087032,0.,-0.00321393,-0.00099863,0.,-0.00158306,-0.0086985
 5,0.,0.00872739,-0.33739765,0.,0.00250467,-0.00892863,0.,-0.00368950,-
 0.00029809,0.,-0.00089359,0.00029439,0.,-0.00004079,0.00172535,0.,0.00
 131496,0.00014179,0.,0.00228131,-0.00114483,0.,-0.00699397,0.35653401,
 0.,0.,0.00651279,0.,0.,0.00307299,0.,0.,0.00580999,0.,0.,-0.00205406,0
 .,0.,-0.03531579,0.,0.,0.00201899,0.,0.,-0.00391156,0.,0.,-0.00066141,
 0.,0.,0.00052048,0.,0.,-0.00132148,0.,0.,-0.00313189,0.,0.,0.02846097\
 \-0.00007578,0.00004102,0.,0.00008627,-0.00001695,0.,-0.00000999,-0.00
 000376,0.,-0.00003094,0.00001675,0.,-0.00000232,0.00001042,0.,0.000061
 36,-0.00006296,0.,-0.00002740,0.00001247,0.,0.00000227,-0.00000123,0.,
 -0.00002543,0.00001612,0.,0.00000910,0.00000588,0.,0.00001282,-0.00000
 694,0.,0.00000005,-0.00001083,0.\\\@


 AND HERE I AM, FOR ALL MY LORE,
 THE WRETCHED FOOL I WAS BEFORE.
 CALLED MASTER OF ARTS, AND DOCTOR TO BOOT,
 FOR TEN YEARS ALMOST I CONFUTE
 AND UP AND DOWN, WHEREVER IT GOES
 I DRAG MY STUDENTS BY THE NOSE --
 AND SEE THAT FOR ALL OUR SCIENCE AND ART
 WE CAN KNOW NOTHING.  IT BURNS MY HEART.

                                       -- FAUST
 Job cpu time:       0 days  0 hours 24 minutes 22.3 seconds.
 Elapsed time:       0 days  0 hours  6 minutes  7.9 seconds.
 File lengths (MBytes):  RWF=    139 Int=      0 D2E=      0 Chk=     34 Scr=      1
 Normal termination of Gaussian 16 at Tue Dec  9 13:54:09 2025.
