 Entering Gaussian System, Link 0=g16
 Initial command:
 /share/software/user/restricted/gaussian/g16.B01/l1.exe "/home/users/jlapier/Chloroaromatics/Gau-9260.inp" -scrdir="/home/users/jlapier/Chloroaromatics/"
 Entering Link 1 = /share/software/user/restricted/gaussian/g16.B01/l1.exe PID=      9261.
  
 Copyright (c) 1988-2017, Gaussian, Inc.  All Rights Reserved.
  
 This is part of the Gaussian(R) 16 program.  It is based on
 the Gaussian(R) 09 system (copyright 2009, Gaussian, Inc.),
 the Gaussian(R) 03 system (copyright 2003, Gaussian, Inc.),
 the Gaussian(R) 98 system (copyright 1998, Gaussian, Inc.),
 the Gaussian(R) 94 system (copyright 1995, Gaussian, Inc.),
 the Gaussian 92(TM) system (copyright 1992, Gaussian, Inc.),
 the Gaussian 90(TM) system (copyright 1990, Gaussian, Inc.),
 the Gaussian 88(TM) system (copyright 1988, Gaussian, Inc.),
 the Gaussian 86(TM) system (copyright 1986, Carnegie Mellon
 University), and the Gaussian 82(TM) system (copyright 1983,
 Carnegie Mellon University). Gaussian is a federally registered
 trademark of Gaussian, Inc.
  
 This software contains proprietary and confidential information,
 including trade secrets, belonging to Gaussian, Inc.
  
 This software is provided under written license and may be
 used, copied, transmitted, or stored only in accord with that
 written license.
  
 The following legend is applicable only to US Government
 contracts under FAR:
  
                    RESTRICTED RIGHTS LEGEND
  
 Use, reproduction and disclosure by the US Government is
 subject to restrictions as set forth in subparagraphs (a)
 and (c) of the Commercial Computer Software - Restricted
 Rights clause in FAR 52.227-19.
  
 Gaussian, Inc.
 340 Quinnipiac St., Bldg. 40, Wallingford CT 06492
  
  
 ---------------------------------------------------------------
 Warning -- This program may not be used in any manner that
 competes with the business of Gaussian, Inc. or will provide
 assistance to any competitor of Gaussian, Inc.  The licensee
 of this program is prohibited from giving any competitor of
 Gaussian, Inc. access to this program.  By using this program,
 the user acknowledges that Gaussian, Inc. is engaged in the
 business of creating and licensing software in the field of
 computational chemistry and represents and warrants to the
 licensee that it is not a competitor of Gaussian, Inc. and that
 it will not use this program in any manner prohibited above.
 ---------------------------------------------------------------
  

 Cite this work as:
 Gaussian 16, Revision B.01,
 M. J. Frisch, G. W. Trucks, H. B. Schlegel, G. E. Scuseria, 
 M. A. Robb, J. R. Cheeseman, G. Scalmani, V. Barone, 
 G. A. Petersson, H. Nakatsuji, X. Li, M. Caricato, A. V. Marenich, 
 J. Bloino, B. G. Janesko, R. Gomperts, B. Mennucci, H. P. Hratchian, 
 J. V. Ortiz, A. F. Izmaylov, J. L. Sonnenberg, D. Williams-Young, 
 F. Ding, F. Lipparini, F. Egidi, J. Goings, B. Peng, A. Petrone, 
 T. Henderson, D. Ranasinghe, V. G. Zakrzewski, J. Gao, N. Rega, 
 G. Zheng, W. Liang, M. Hada, M. Ehara, K. Toyota, R. Fukuda, 
 J. Hasegawa, M. Ishida, T. Nakajima, Y. Honda, O. Kitao, H. Nakai, 
 T. Vreven, K. Throssell, J. A. Montgomery, Jr., J. E. Peralta, 
 F. Ogliaro, M. J. Bearpark, J. J. Heyd, E. N. Brothers, K. N. Kudin, 
 V. N. Staroverov, T. A. Keith, R. Kobayashi, J. Normand, 
 K. Raghavachari, A. P. Rendell, J. C. Burant, S. S. Iyengar, 
 J. Tomasi, M. Cossi, J. M. Millam, M. Klene, C. Adamo, R. Cammi, 
 J. W. Ochterski, R. L. Martin, K. Morokuma, O. Farkas, 
 J. B. Foresman, and D. J. Fox, Gaussian, Inc., Wallingford CT, 2016.
 
 ******************************************
 Gaussian 16:  ES64L-G16RevB.01 20-Dec-2017
                10-Dec-2025 
 ******************************************
 %mem=8GB
 %nprocshare=4
 Will use up to    4 processors via shared memory.
 %oldchk=geometry_chks/14-1_-ClBzNeutralRadical.chk
 %chk=frequency_chks/14-1_-ClBzNeutralRadical_Freq.chk
 Copying data from "geometry_chks/14-1_-ClBzNeutralRadical.chk" to current chk file "frequency_chks/14-1_-ClBzNeutralRadical_Freq.chk"
 IOpt=  2 FromEx=T IUOpen= 4 IOptOp= 5 NList=   0 IFRang= 0 IUIn= 4 IUOut= 2.
 -------------------------------------------------------
 # opt freq 6-311++g(d,p) guess=read geom=allcheck m062x
 -------------------------------------------------------
 1/18=20,19=15,26=3,29=7,38=1/1,3;
 2/9=110,12=2,40=1/2;
 3/5=4,6=6,7=1111,11=2,14=-4,25=1,30=1,71=1,74=-55,116=-2/1,2,3;
 4/5=1/1;
 5/5=2,38=6/2;
 6/7=2,8=2,9=2,10=2,28=1/1;
 7//1,2,3,16;
 1/18=20,19=15,26=3/3(2);
 2/9=110/2;
 99//99;
 2/9=110/2;
 3/5=4,6=6,7=1111,11=2,14=-2,25=1,30=1,71=1,74=-55/1,2,3;
 4/5=5,16=3,69=1/1;
 5/5=2,38=5/2;
 7//1,2,3,16;
 1/18=20,19=15,26=3/3(-5);
 2/9=110/2;
 6/7=2,8=2,9=2,10=2,19=2,28=1/1;
 99/9=1/99;
 Structure from the checkpoint file:  "frequency_chks/14-1_-ClBzNeutralRadical_Freq.chk"
 ------------------------------
 Neutral Radical (removed 4) 1_
 ------------------------------
 Charge =  0 Multiplicity = 2
 Redundant internal coordinates found in file.  (old form).
 C,0,-3.2192097419,0.209450922,0.
 C,0,-2.0243642326,0.9520761026,0.
 C,0,-0.8741056226,0.2054507629,0.
 C,0,-0.7275633988,-1.1580263353,0.
 C,0,-1.9298239438,-1.8885830116,0.
 C,0,-3.1551732246,-1.1964197602,0.
 Cl,0,-4.6027851607,-2.0860780109,0.
 H,0,-4.189987654,0.7240169475,0.
 H,0,-2.0228635782,2.0485672129,0.
 H,0,0.2513753472,-1.6519769401,0.
 H,0,-1.90924879,-2.9870178899,0.
 Recover connectivity data from disk.

 GradGradGradGradGradGradGradGradGradGradGradGradGradGradGradGradGradGrad
 Berny optimization.
 Initialization pass.
                           ----------------------------
                           !    Initial Parameters    !
                           ! (Angstroms and Degrees)  !
 --------------------------                            --------------------------
 ! Name  Definition              Value          Derivative Info.                !
 --------------------------------------------------------------------------------
 ! R1    R(1,2)                  1.4068         estimate D2E/DX2                !
 ! R2    R(1,6)                  1.4073         estimate D2E/DX2                !
 ! R3    R(1,8)                  1.0987         estimate D2E/DX2                !
 ! R4    R(2,3)                  1.3713         estimate D2E/DX2                !
 ! R5    R(2,9)                  1.0965         estimate D2E/DX2                !
 ! R6    R(3,4)                  1.3713         estimate D2E/DX2                !
 ! R7    R(4,5)                  1.4068         estimate D2E/DX2                !
 ! R8    R(4,10)                 1.0965         estimate D2E/DX2                !
 ! R9    R(5,6)                  1.4073         estimate D2E/DX2                !
 ! R10   R(5,11)                 1.0986         estimate D2E/DX2                !
 ! R11   R(6,7)                  1.6991         estimate D2E/DX2                !
 ! A1    A(2,1,6)              119.254          estimate D2E/DX2                !
 ! A2    A(2,1,8)              120.212          estimate D2E/DX2                !
 ! A3    A(6,1,8)              120.534          estimate D2E/DX2                !
 ! A4    A(1,2,3)              115.1507         estimate D2E/DX2                !
 ! A5    A(1,2,9)              121.9404         estimate D2E/DX2                !
 ! A6    A(3,2,9)              122.9089         estimate D2E/DX2                !
 ! A7    A(2,3,4)              129.1218         estimate D2E/DX2                !
 ! A8    A(3,4,5)              115.1506         estimate D2E/DX2                !
 ! A9    A(3,4,10)             122.9089         estimate D2E/DX2                !
 ! A10   A(5,4,10)             121.9404         estimate D2E/DX2                !
 ! A11   A(4,5,6)              119.2541         estimate D2E/DX2                !
 ! A12   A(4,5,11)             120.212          estimate D2E/DX2                !
 ! A13   A(6,5,11)             120.5339         estimate D2E/DX2                !
 ! A14   A(1,6,5)              122.0688         estimate D2E/DX2                !
 ! A15   A(1,6,7)              118.9656         estimate D2E/DX2                !
 ! A16   A(5,6,7)              118.9656         estimate D2E/DX2                !
 ! D1    D(6,1,2,3)              0.0            estimate D2E/DX2                !
 ! D2    D(6,1,2,9)            180.0            estimate D2E/DX2                !
 ! D3    D(8,1,2,3)            180.0            estimate D2E/DX2                !
 ! D4    D(8,1,2,9)              0.0            estimate D2E/DX2                !
 ! D5    D(2,1,6,5)              0.0            estimate D2E/DX2                !
 ! D6    D(2,1,6,7)            180.0            estimate D2E/DX2                !
 ! D7    D(8,1,6,5)            180.0            estimate D2E/DX2                !
 ! D8    D(8,1,6,7)              0.0            estimate D2E/DX2                !
 ! D9    D(1,2,3,4)              0.0            estimate D2E/DX2                !
 ! D10   D(9,2,3,4)            180.0            estimate D2E/DX2                !
 ! D11   D(2,3,4,5)              0.0            estimate D2E/DX2                !
 ! D12   D(2,3,4,10)           180.0            estimate D2E/DX2                !
 ! D13   D(3,4,5,6)              0.0            estimate D2E/DX2                !
 ! D14   D(3,4,5,11)           180.0            estimate D2E/DX2                !
 ! D15   D(10,4,5,6)           180.0            estimate D2E/DX2                !
 ! D16   D(10,4,5,11)            0.0            estimate D2E/DX2                !
 ! D17   D(4,5,6,1)              0.0            estimate D2E/DX2                !
 ! D18   D(4,5,6,7)            180.0            estimate D2E/DX2                !
 ! D19   D(11,5,6,1)           180.0            estimate D2E/DX2                !
 ! D20   D(11,5,6,7)             0.0            estimate D2E/DX2                !
 --------------------------------------------------------------------------------
 Trust Radius=3.00D-01 FncErr=1.00D-07 GrdErr=1.00D-06 EigMax=2.50D+02 EigMin=1.00D-04
 Number of steps in this run=     57 maximum allowed number of steps=    100.
 GradGradGradGradGradGradGradGradGradGradGradGradGradGradGradGradGradGrad

                          Input orientation:                          
 ---------------------------------------------------------------------
 Center     Atomic      Atomic             Coordinates (Angstroms)
 Number     Number       Type             X           Y           Z
 ---------------------------------------------------------------------
      1          6           0       -3.219210    0.209451   -0.000000
      2          6           0       -2.024364    0.952076   -0.000000
      3          6           0       -0.874106    0.205451   -0.000000
      4          6           0       -0.727563   -1.158026   -0.000000
      5          6           0       -1.929824   -1.888583   -0.000000
      6          6           0       -3.155173   -1.196420   -0.000000
      7         17           0       -4.602785   -2.086078   -0.000000
      8          1           0       -4.189988    0.724017   -0.000000
      9          1           0       -2.022864    2.048567   -0.000000
     10          1           0        0.251375   -1.651977   -0.000000
     11          1           0       -1.909249   -2.987018   -0.000000
 ---------------------------------------------------------------------
                    Distance matrix (angstroms):
                    1          2          3          4          5
     1  C    0.000000
     2  C    1.406822   0.000000
     3  C    2.345108   1.371329   0.000000
     4  C    2.842234   2.476737   1.371329   0.000000
     5  C    2.462572   2.842232   2.345105   1.406820   0.000000
     6  C    1.407328   2.427913   2.677407   2.427913   1.407328
     7  Cl   2.680249   3.984800   4.376546   3.984799   2.680247
     8  H    1.098721   2.177599   3.356186   3.940872   3.454565
     9  H    2.193990   1.096492   2.171802   3.458330   3.938249
    10  H    3.938258   3.458335   2.171807   1.096498   2.193995
    11  H    3.454477   3.940776   3.356096   2.177519   1.098628
                    6          7          8          9         10
     6  C    0.000000
     7  Cl   1.699139   0.000000
     8  H    2.181494   2.840253   0.000000
     9  H    3.436869   4.873529   2.539854   0.000000
    10  H    3.436874   4.873532   5.036969   4.343523   0.000000
    11  H    2.181415   2.840217   4.355864   5.036867   2.539809
                   11
    11  H    0.000000
 Stoichiometry    C6H4Cl(2)
 Framework group  CS[SG(C6H4Cl)]
 Deg. of freedom    19
 Full point group                 CS      NOp   2
 Largest Abelian subgroup         CS      NOp   2
 Largest concise Abelian subgroup C1      NOp   1
                         Standard orientation:                         
 ---------------------------------------------------------------------
 Center     Atomic      Atomic             Coordinates (Angstroms)
 Number     Number       Type             X           Y           Z
 ---------------------------------------------------------------------
      1          6           0       -1.231286   -0.225528    0.000000
      2          6           0       -1.238364   -1.632332    0.000000
      3          6           0        0.000005   -2.221387    0.000000
      4          6           0        1.238372   -1.632327    0.000000
      5          6           0        1.231287   -0.225525    0.000000
      6          6           0        0.000000    0.456021    0.000000
      7         17           0       -0.000001    2.155159    0.000000
      8          1           0       -2.177973    0.332120    0.000000
      9          1           0       -2.171754   -2.207727    0.000000
     10          1           0        2.171769   -2.207722    0.000000
     11          1           0        2.177891    0.332080    0.000000
 ---------------------------------------------------------------------
 Rotational constants (GHZ):           5.4778384           1.6899952           1.2915368
 Standard basis: 6-311++G(d,p) (5D, 7F)
 There are   149 symmetry adapted cartesian basis functions of A'  symmetry.
 There are    48 symmetry adapted cartesian basis functions of A"  symmetry.
 There are   142 symmetry adapted basis functions of A'  symmetry.
 There are    48 symmetry adapted basis functions of A"  symmetry.
   190 basis functions,   305 primitive gaussians,   197 cartesian basis functions
    29 alpha electrons       28 beta electrons
       nuclear repulsion energy       306.0463339716 Hartrees.
 NAtoms=   11 NActive=   11 NUniq=   11 SFac= 1.00D+00 NAtFMM=   60 NAOKFM=F Big=F
 Integral buffers will be    131072 words long.
 Raffenetti 2 integral format.
 Two-electron integral symmetry is turned on.
 One-electron integrals computed using PRISM.
 NBasis=   190 RedAO= T EigKep=  1.95D-06  NBF=   142    48
 NBsUse=   190 1.00D-06 EigRej= -1.00D+00 NBFU=   142    48
 Initial guess from the checkpoint file:  "frequency_chks/14-1_-ClBzNeutralRadical_Freq.chk"
 B after Tr=     0.000000   -0.000000    0.000000
         Rot=    1.000000   -0.000000    0.000000   -0.000000 Ang=   0.00 deg.
 Initial guess orbital symmetries:
 Alpha Orbitals:
       Occupied  (A') (A') (A') (A') (A') (A') (A') (A') (A') (A')
                 (A") (A') (A') (A") (A') (A') (A") (A") (A") (A")
                 (A') (A") (A') (A') (A') (A') (A') (A') (A')
       Virtual   (A') (A') (A') (A') (A') (A') (A') (A') (A') (A')
                 (A') (A') (A') (A') (A') (A') (A') (A') (A') (A')
                 (A') (A') (A') (A') (A') (A') (A') (A') (A') (A')
                 (A') (A') (A') (A') (A') (A') (A') (A') (A') (A')
                 (A') (A') (A') (A') (A') (A') (A') (A') (A') (A')
                 (A') (A') (A') (A') (A') (A') (A') (A') (A') (A')
                 (A') (A') (A') (A') (A') (A') (A') (A') (A') (A')
                 (A') (A') (A') (A') (A') (A') (A') (A') (A') (A')
                 (A') (A') (A') (A') (A') (A') (A') (A') (A') (A')
                 (A') (A') (A') (A') (A') (A') (A') (A') (A') (A')
                 (A') (A') (A') (A') (A') (A') (A') (A') (A') (A')
                 (A') (A') (A') (A') (A') (A') (A') (A') (A') (A')
                 (A") (A") (A") (A") (A") (A") (A") (A") (A") (A")
                 (A") (A") (A") (A") (A") (A") (A") (A") (A") (A")
                 (A") (A") (A") (A") (A") (A") (A") (A") (A") (A")
                 (A") (A") (A") (A") (A") (A") (A") (A") (A") (A")
                 (A")
 Beta  Orbitals:
       Occupied  (A') (A') (A') (A') (A') (A') (A') (A') (A') (A')
                 (A") (A') (A') (A") (A') (A") (A") (A") (A') (A")
                 (A') (A") (A') (A') (A') (A') (A') (A')
       Virtual   (A') (A') (A') (A') (A') (A') (A') (A') (A') (A')
                 (A') (A') (A') (A') (A') (A') (A') (A') (A') (A')
                 (A') (A') (A') (A') (A') (A') (A') (A') (A') (A')
                 (A') (A') (A') (A') (A') (A') (A') (A') (A') (A')
                 (A') (A') (A') (A') (A') (A') (A') (A') (A') (A')
                 (A') (A') (A') (A') (A') (A') (A') (A') (A') (A')
                 (A') (A') (A') (A') (A') (A') (A') (A') (A') (A')
                 (A') (A') (A') (A') (A') (A') (A') (A') (A') (A')
                 (A') (A') (A') (A') (A') (A') (A') (A') (A') (A')
                 (A') (A') (A') (A') (A') (A') (A') (A') (A') (A')
                 (A') (A') (A') (A') (A') (A') (A') (A') (A') (A')
                 (A') (A') (A') (A') (A') (A') (A') (A') (A') (A')
                 (A') (A") (A") (A") (A") (A") (A") (A") (A") (A")
                 (A") (A") (A") (A") (A") (A") (A") (A") (A") (A")
                 (A") (A") (A") (A") (A") (A") (A") (A") (A") (A")
                 (A") (A") (A") (A") (A") (A") (A") (A") (A") (A")
                 (A") (A")
 Initial guess <Sx>= 0.0000 <Sy>= 0.0000 <Sz>= 0.5000 <S**2>= 0.7831 S= 0.5164
 Keep R1 and R2 ints in memory in symmetry-blocked form, NReq=262273818.
 Requested convergence on RMS density matrix=1.00D-08 within 128 cycles.
 Requested convergence on MAX density matrix=1.00D-06.
 Requested convergence on             energy=1.00D-06.
 No special actions if energy rises.
 EnCoef did     4 forward-backward iterations
 EnCoef did     5 forward-backward iterations
 EnCoef did     6 forward-backward iterations
 EnCoef did     5 forward-backward iterations
 EnCoef did     1 forward-backward iterations
 SCF Done:  E(UM062X) =  -691.109669371     A.U. after   28 cycles
            NFock= 28  Conv=0.20D-08     -V/T= 2.0029
 <Sx>= 0.0000 <Sy>= 0.0000 <Sz>= 0.5000 <S**2>= 0.7627 S= 0.5063
 <L.S>=  0.00000000000    
 Annihilation of the first spin contaminant:
 S**2 before annihilation     0.7627,   after     0.7501

 **********************************************************************

            Population analysis using the SCF Density.

 **********************************************************************

 Orbital symmetries:
 Alpha Orbitals:
       Occupied  (A') (A') (A') (A') (A') (A') (A') (A') (A') (A')
                 (A") (A') (A') (A') (A') (A') (A') (A') (A') (A')
                 (A') (A") (A') (A') (A") (A') (A") (A') (A")
       Virtual   (A") (A') (A") (A') (A') (A') (A') (A") (A') (A')
                 (A") (A") (A') (A') (A') (A') (A") (A") (A') (A')
                 (A') (A") (A') (A') (A") (A') (A') (A') (A") (A')
                 (A') (A') (A') (A') (A') (A') (A') (A') (A') (A')
                 (A') (A') (A') (A') (A') (A') (A") (A') (A') (A")
                 (A') (A') (A') (A") (A") (A') (A') (A') (A") (A")
                 (A') (A") (A') (A') (A') (A') (A') (A') (A") (A')
                 (A') (A') (A') (A") (A') (A') (A') (A') (A') (A")
                 (A") (A') (A") (A") (A') (A') (A") (A') (A") (A')
                 (A') (A') (A') (A") (A') (A") (A") (A') (A') (A')
                 (A') (A") (A') (A') (A") (A') (A") (A") (A') (A')
                 (A') (A") (A') (A") (A') (A") (A") (A') (A') (A')
                 (A') (A') (A') (A') (A') (A") (A') (A') (A') (A')
                 (A') (A") (A") (A") (A") (A') (A') (A") (A') (A')
                 (A') (A') (A') (A') (A') (A') (A') (A') (A') (A')
                 (A') (A') (A') (A') (A') (A') (A') (A") (A') (A')
                 (A')
 Beta  Orbitals:
       Occupied  (A') (A') (A') (A') (A') (A') (A') (A') (A') (A")
                 (A') (A') (A') (A') (A') (A') (A') (A') (A') (A')
                 (A') (A") (A') (A') (A") (A') (A") (A")
       Virtual   (A') (A") (A') (A') (A") (A') (A') (A') (A") (A')
                 (A') (A") (A") (A') (A') (A') (A") (A') (A') (A")
                 (A') (A") (A') (A') (A') (A') (A") (A') (A') (A')
                 (A") (A') (A') (A') (A') (A') (A') (A') (A') (A')
                 (A') (A') (A') (A') (A') (A') (A') (A") (A') (A')
                 (A') (A") (A') (A') (A') (A") (A") (A') (A') (A")
                 (A") (A') (A") (A') (A') (A') (A') (A') (A') (A')
                 (A") (A') (A') (A') (A") (A') (A') (A') (A') (A')
                 (A") (A") (A') (A") (A") (A') (A') (A') (A") (A")
                 (A') (A') (A') (A') (A") (A") (A') (A") (A') (A')
                 (A') (A') (A") (A') (A') (A") (A') (A") (A") (A')
                 (A') (A') (A") (A') (A") (A') (A") (A") (A') (A')
                 (A') (A') (A') (A') (A') (A') (A") (A') (A') (A')
                 (A') (A') (A") (A") (A") (A") (A') (A') (A") (A')
                 (A') (A') (A') (A') (A') (A') (A') (A') (A') (A')
                 (A') (A') (A') (A') (A') (A') (A') (A') (A") (A')
                 (A') (A')
 The electronic state is 2-A'.
 Alpha  occ. eigenvalues -- -102.68101 -10.61681 -10.57897 -10.57504 -10.57502
 Alpha  occ. eigenvalues --  -10.57118 -10.57112  -9.82463  -7.54977  -7.54289
 Alpha  occ. eigenvalues --   -7.54289  -1.01377  -0.95526  -0.87109  -0.82800
 Alpha  occ. eigenvalues --   -0.71901  -0.68304  -0.59617  -0.55402  -0.54316
 Alpha  occ. eigenvalues --   -0.51931  -0.48266  -0.48261  -0.44543  -0.41612
 Alpha  occ. eigenvalues --   -0.38413  -0.33053  -0.31010  -0.30951
 Alpha virt. eigenvalues --   -0.00579  -0.00233   0.00253   0.00794   0.01750
 Alpha virt. eigenvalues --    0.03332   0.04187   0.06293   0.06641   0.07283
 Alpha virt. eigenvalues --    0.08596   0.08918   0.09086   0.10065   0.11934
 Alpha virt. eigenvalues --    0.12877   0.12912   0.13552   0.13851   0.13970
 Alpha virt. eigenvalues --    0.14296   0.14583   0.14735   0.15229   0.15978
 Alpha virt. eigenvalues --    0.15979   0.18606   0.18684   0.20714   0.21428
 Alpha virt. eigenvalues --    0.21543   0.21640   0.24340   0.24415   0.26171
 Alpha virt. eigenvalues --    0.26381   0.28411   0.28499   0.29695   0.30733
 Alpha virt. eigenvalues --    0.33546   0.36054   0.36141   0.38357   0.47444
 Alpha virt. eigenvalues --    0.48105   0.48408   0.50442   0.52315   0.55057
 Alpha virt. eigenvalues --    0.55691   0.57371   0.58647   0.59283   0.60780
 Alpha virt. eigenvalues --    0.61656   0.63438   0.63757   0.63790   0.64287
 Alpha virt. eigenvalues --    0.68105   0.70204   0.71504   0.75398   0.78129
 Alpha virt. eigenvalues --    0.79536   0.80217   0.85929   0.86698   0.87022
 Alpha virt. eigenvalues --    0.87540   0.90106   0.90358   0.92533   0.92800
 Alpha virt. eigenvalues --    0.94416   0.96208   0.99097   1.02280   1.04119
 Alpha virt. eigenvalues --    1.04299   1.06238   1.10261   1.16523   1.18594
 Alpha virt. eigenvalues --    1.23511   1.25879   1.26738   1.35622   1.38352
 Alpha virt. eigenvalues --    1.47618   1.54086   1.54973   1.59280   1.61966
 Alpha virt. eigenvalues --    1.62042   1.64390   1.67097   1.70993   1.72129
 Alpha virt. eigenvalues --    1.74352   1.77795   1.89804   1.90604   1.90770
 Alpha virt. eigenvalues --    1.93051   1.95057   1.95658   1.97658   2.01350
 Alpha virt. eigenvalues --    2.05756   2.08644   2.08802   2.21546   2.26939
 Alpha virt. eigenvalues --    2.32371   2.34234   2.38282   2.39984   2.45602
 Alpha virt. eigenvalues --    2.47859   2.55761   2.57824   2.59237   2.68346
 Alpha virt. eigenvalues --    2.69439   2.71610   2.73335   2.74152   2.76144
 Alpha virt. eigenvalues --    2.77134   2.81635   2.83590   2.91809   2.93993
 Alpha virt. eigenvalues --    2.94003   2.96828   3.11085   3.16521   3.27957
 Alpha virt. eigenvalues --    3.37694   3.37845   3.50106   3.57868   3.70009
 Alpha virt. eigenvalues --    3.82755   4.00474   4.13957   4.15101   4.78986
 Alpha virt. eigenvalues --    9.98132  23.54545  23.91039  24.01804  24.08786
 Alpha virt. eigenvalues --   24.12373  24.24291  25.93629  26.25213  26.73781
 Alpha virt. eigenvalues --  216.08213
  Beta  occ. eigenvalues -- -102.68105 -10.61719 -10.57417 -10.57415 -10.57150
  Beta  occ. eigenvalues --  -10.57135 -10.56915  -9.82464  -7.54971  -7.54307
  Beta  occ. eigenvalues --   -7.54290  -1.01157  -0.94621  -0.86707  -0.81403
  Beta  occ. eigenvalues --   -0.71427  -0.67238  -0.58485  -0.54655  -0.53372
  Beta  occ. eigenvalues --   -0.51430  -0.48003  -0.46977  -0.43974  -0.40931
  Beta  occ. eigenvalues --   -0.38385  -0.33096  -0.29886
  Beta virt. eigenvalues --   -0.05421  -0.00639  -0.00058   0.00991   0.01318
  Beta virt. eigenvalues --    0.02267   0.03540   0.04746   0.06235   0.06783
  Beta virt. eigenvalues --    0.07548   0.08776   0.08971   0.09000   0.10954
  Beta virt. eigenvalues --    0.11877   0.12710   0.12830   0.13351   0.13555
  Beta virt. eigenvalues --    0.13630   0.14493   0.14597   0.14605   0.15388
  Beta virt. eigenvalues --    0.15978   0.16166   0.18768   0.18878   0.21494
  Beta virt. eigenvalues --    0.21527   0.21697   0.21821   0.24264   0.24379
  Beta virt. eigenvalues --    0.26215   0.26675   0.28557   0.28753   0.30103
  Beta virt. eigenvalues --    0.31176   0.33977   0.36304   0.36557   0.39075
  Beta virt. eigenvalues --    0.47643   0.48208   0.48434   0.50680   0.52065
  Beta virt. eigenvalues --    0.55180   0.55272   0.57536   0.58559   0.58680
  Beta virt. eigenvalues --    0.59314   0.60982   0.63698   0.63706   0.63794
  Beta virt. eigenvalues --    0.64391   0.68792   0.70096   0.71220   0.75366
  Beta virt. eigenvalues --    0.78159   0.79535   0.80560   0.85981   0.86042
  Beta virt. eigenvalues --    0.86761   0.87933   0.90162   0.90734   0.92509
  Beta virt. eigenvalues --    0.92796   0.93588   0.96460   0.99396   1.02223
  Beta virt. eigenvalues --    1.04600   1.04840   1.06272   1.10314   1.17113
  Beta virt. eigenvalues --    1.18508   1.23486   1.26713   1.28235   1.35612
  Beta virt. eigenvalues --    1.40047   1.48024   1.54694   1.55201   1.59574
  Beta virt. eigenvalues --    1.62573   1.63169   1.64535   1.67205   1.71399
  Beta virt. eigenvalues --    1.72746   1.74860   1.77830   1.90412   1.90852
  Beta virt. eigenvalues --    1.90908   1.93306   1.95475   1.96269   1.98236
  Beta virt. eigenvalues --    2.02363   2.05688   2.08707   2.08940   2.21812
  Beta virt. eigenvalues --    2.27067   2.32379   2.34663   2.39137   2.40510
  Beta virt. eigenvalues --    2.45789   2.48362   2.55792   2.58169   2.59315
  Beta virt. eigenvalues --    2.68853   2.69549   2.71639   2.73812   2.74581
  Beta virt. eigenvalues --    2.76312   2.77191   2.81983   2.83601   2.91999
  Beta virt. eigenvalues --    2.93782   2.94171   2.99733   3.11178   3.16787
  Beta virt. eigenvalues --    3.28566   3.38099   3.38107   3.50418   3.58747
  Beta virt. eigenvalues --    3.70295   3.82973   4.00537   4.13974   4.15612
  Beta virt. eigenvalues --    4.79183   9.98129  23.54687  23.91203  24.01844
  Beta virt. eigenvalues --   24.08982  24.12349  24.24855  25.93587  26.25211
  Beta virt. eigenvalues --   26.73801 216.08207
          Condensed to atoms (all electrons):
               1          2          3          4          5          6
     1  C   14.304242  -0.548681   0.739169  -0.935214  -5.423241  -2.255322
     2  C   -0.548681   7.139242  -0.142798   0.355488  -0.935403   0.389794
     3  C    0.739169  -0.142798   6.543331  -0.142773   0.739265  -2.318409
     4  C   -0.935214   0.355488  -0.142773   7.139046  -0.548652   0.389692
     5  C   -5.423241  -0.935403   0.739265  -0.548652  14.304550  -2.255595
     6  C   -2.255322   0.389794  -2.318409   0.389692  -2.255595  12.765460
     7  Cl  -0.062229   0.191269  -0.011459   0.191266  -0.062158  -0.830890
     8  H    0.521109  -0.009275   0.024476   0.008167  -0.104132  -0.135730
     9  H   -0.011003   0.323201   0.023240  -0.036882   0.053658  -0.016603
    10  H    0.053664  -0.036883   0.023237   0.323199  -0.011008  -0.016601
    11  H   -0.104161   0.008172   0.024480  -0.009284   0.521167  -0.135753
               7          8          9         10         11
     1  C   -0.062229   0.521109  -0.011003   0.053664  -0.104161
     2  C    0.191269  -0.009275   0.323201  -0.036883   0.008172
     3  C   -0.011459   0.024476   0.023240   0.023237   0.024480
     4  C    0.191266   0.008167  -0.036882   0.323199  -0.009284
     5  C   -0.062158  -0.104132   0.053658  -0.011008   0.521167
     6  C   -0.830890  -0.135730  -0.016603  -0.016601  -0.135753
     7  Cl  17.295268   0.008567  -0.004432  -0.004432   0.008570
     8  H    0.008567   0.479128  -0.003956   0.001759  -0.002490
     9  H   -0.004432  -0.003956   0.471184  -0.000843   0.001759
    10  H   -0.004432   0.001759  -0.000843   0.471186  -0.003959
    11  H    0.008570  -0.002490   0.001759  -0.003959   0.479138
          Atomic-Atomic Spin Densities.
               1          2          3          4          5          6
     1  C    0.419955  -0.320149   0.273807  -0.243196   0.175413  -0.278025
     2  C   -0.320149   0.372348  -0.390207   0.339767  -0.243197   0.324688
     3  C    0.273807  -0.390207   1.376087  -0.390221   0.273821  -0.370176
     4  C   -0.243196   0.339767  -0.390221   0.372375  -0.320171   0.324702
     5  C    0.175413  -0.243197   0.273821  -0.320171   0.419977  -0.278042
     6  C   -0.278025   0.324688  -0.370176   0.324702  -0.278042   0.260301
     7  Cl  -0.057409   0.043737  -0.047162   0.043738  -0.057409   0.063440
     8  H    0.018813  -0.018284   0.014580  -0.007206   0.007892  -0.018513
     9  H    0.001546   0.005788   0.001820  -0.010789   0.005298  -0.012230
    10  H    0.005297  -0.010788   0.001819   0.005788   0.001546  -0.012229
    11  H    0.007893  -0.007206   0.014582  -0.018288   0.018816  -0.018515
               7          8          9         10         11
     1  C   -0.057409   0.018813   0.001546   0.005297   0.007893
     2  C    0.043737  -0.018284   0.005788  -0.010788  -0.007206
     3  C   -0.047162   0.014580   0.001820   0.001819   0.014582
     4  C    0.043738  -0.007206  -0.010789   0.005788  -0.018288
     5  C   -0.057409   0.007892   0.005298   0.001546   0.018816
     6  C    0.063440  -0.018513  -0.012230  -0.012229  -0.018515
     7  Cl   0.011697  -0.004009  -0.000474  -0.000474  -0.004010
     8  H   -0.004009   0.010653   0.002027   0.000139   0.000202
     9  H   -0.000474   0.002027   0.032061   0.000173   0.000139
    10  H   -0.000474   0.000139   0.000173   0.032060   0.002028
    11  H   -0.004010   0.000202   0.000139   0.002028   0.010652
 Mulliken charges and spin densities:
               1          2
     1  C   -0.278331   0.003944
     2  C   -0.734126   0.096497
     3  C    0.498242   0.758749
     4  C   -0.734052   0.096500
     5  C   -0.278450   0.003943
     6  C    0.419957  -0.014600
     7  Cl   0.280661  -0.008337
     8  H    0.212378   0.006294
     9  H    0.200677   0.025359
    10  H    0.200682   0.025359
    11  H    0.212362   0.006292
 Sum of Mulliken charges =  -0.00000   1.00000
 Mulliken charges and spin densities with hydrogens summed into heavy atoms:
               1          2
     1  C   -0.065952   0.010238
     2  C   -0.533449   0.121856
     3  C    0.498242   0.758749
     4  C   -0.533370   0.121859
     5  C   -0.066088   0.010235
     6  C    0.419957  -0.014600
     7  Cl   0.280661  -0.008337
 Electronic spatial extent (au):  <R**2>=            847.1597
 Charge=              0.0000 electrons
 Dipole moment (field-independent basis, Debye):
    X=              0.0000    Y=             -0.8501    Z=              0.0000  Tot=              0.8501
 Quadrupole moment (field-independent basis, Debye-Ang):
   XX=            -40.3073   YY=            -49.3615   ZZ=            -51.2829
   XY=             -0.0000   XZ=              0.0000   YZ=              0.0000
 Traceless Quadrupole moment (field-independent basis, Debye-Ang):
   XX=              6.6766   YY=             -2.3776   ZZ=             -4.2990
   XY=             -0.0000   XZ=              0.0000   YZ=              0.0000
 Octapole moment (field-independent basis, Debye-Ang**2):
  XXX=              0.0000  YYY=             16.8001  ZZZ=              0.0000  XYY=              0.0000
  XXY=             -3.5189  XXZ=              0.0000  XZZ=              0.0002  YZZ=              7.7121
  YYZ=              0.0000  XYZ=              0.0000
 Hexadecapole moment (field-independent basis, Debye-Ang**3):
 XXXX=           -277.7050 YYYY=           -794.8246 ZZZZ=            -60.7707 XXXY=             -0.0001
 XXXZ=              0.0000 YYYX=              0.0009 YYYZ=              0.0000 ZZZX=              0.0000
 ZZZY=              0.0000 XXYY=           -164.3374 XXZZ=            -70.3208 YYZZ=           -152.0948
 XXYZ=              0.0000 YYXZ=              0.0000 ZZXY=              0.0003
 N-N= 3.060463339716D+02 E-N=-2.241433399956D+03  KE= 6.891040834620D+02
 Symmetry A'   KE= 6.368044298123D+02
 Symmetry A"   KE= 5.229965364968D+01
 Symmetry A'   SP= 1.000000000000D+00
 Symmetry A"   SP=-1.741693625396D-14
                          Isotropic Fermi Contact Couplings
        Atom                 a.u.       MegaHertz       Gauss      10(-4) cm-1
     1  C(13)              0.05147      57.86116      20.64630      19.30040
     2  C(13)              0.00945      10.62206       3.79021       3.54314
     3  C(13)              0.41127     462.34881     164.97755     154.22296
     4  C(13)              0.00945      10.62134       3.78996       3.54290
     5  C(13)              0.05147      57.85880      20.64546      19.29962
     6  C(13)             -0.01119     -12.58015      -4.48891      -4.19629
     7  Cl(35)             0.00510       2.23526       0.79760       0.74560
     8  H(1)               0.00255      11.38326       4.06183       3.79705
     9  H(1)               0.01168      52.18882      18.62227      17.40832
    10  H(1)               0.01168      52.18863      18.62220      17.40825
    11  H(1)               0.00255      11.38171       4.06128       3.79653
 --------------------------------------------------------
       Center         ----  Spin Dipole Couplings  ----
                      3XX-RR        3YY-RR        3ZZ-RR
 --------------------------------------------------------
     1   Atom       -0.041085      0.049070     -0.007985
     2   Atom        0.062871      0.037228     -0.100099
     3   Atom       -0.575793      0.976582     -0.400789
     4   Atom        0.062871      0.037229     -0.100099
     5   Atom       -0.041085      0.049071     -0.007986
     6   Atom        0.021440      0.037349     -0.058789
     7   Atom        0.011786      0.037764     -0.049550
     8   Atom        0.003475      0.001954     -0.005429
     9   Atom        0.021507     -0.009416     -0.012091
    10   Atom        0.021507     -0.009415     -0.012091
    11   Atom        0.003476      0.001954     -0.005430
 --------------------------------------------------------
                        XY            XZ            YZ
 --------------------------------------------------------
     1   Atom       -0.007661      0.000000      0.000000
     2   Atom       -0.055542      0.000000      0.000000
     3   Atom       -0.000000      0.000000      0.000000
     4   Atom        0.055543      0.000000      0.000000
     5   Atom        0.007664      0.000000      0.000000
     6   Atom       -0.000000      0.000000      0.000000
     7   Atom        0.000000      0.000000      0.000000
     8   Atom       -0.007416      0.000000      0.000000
     9   Atom       -0.005875      0.000000      0.000000
    10   Atom        0.005875      0.000000      0.000000
    11   Atom        0.007417      0.000000      0.000000
 --------------------------------------------------------


 ---------------------------------------------------------------------------------
              Anisotropic Spin Dipole Couplings in Principal Axis System
 ---------------------------------------------------------------------------------

       Atom             a.u.   MegaHertz   Gauss  10(-4) cm-1        Axes

              Baa    -0.0417    -5.600    -1.998    -1.868  0.9965  0.0841  0.0000
     1 C(13)  Bbb    -0.0080    -1.071    -0.382    -0.357  0.0000  0.0000  1.0000
              Bcc     0.0497     6.671     2.381     2.225 -0.0841  0.9965  0.0000
 
              Baa    -0.1001   -13.432    -4.793    -4.481  0.0000  0.0000  1.0000
     2 C(13)  Bbb    -0.0070    -0.933    -0.333    -0.311  0.6225  0.7826  0.0000
              Bcc     0.1071    14.365     5.126     4.792  0.7826 -0.6225 -0.0000
 
              Baa    -0.5758   -77.266   -27.570   -25.773  1.0000  0.0000  0.0000
     3 C(13)  Bbb    -0.4008   -53.782   -19.191   -17.940  0.0000  0.0000  1.0000
              Bcc     0.9766   131.048    46.761    43.713 -0.0000  1.0000  0.0000
 
              Baa    -0.1001   -13.432    -4.793    -4.481  0.0000  0.0000  1.0000
     4 C(13)  Bbb    -0.0070    -0.933    -0.333    -0.311 -0.6225  0.7826 -0.0000
              Bcc     0.1071    14.366     5.126     4.792  0.7826  0.6225  0.0000
 
              Baa    -0.0417    -5.600    -1.998    -1.868  0.9965 -0.0841 -0.0000
     5 C(13)  Bbb    -0.0080    -1.072    -0.382    -0.357  0.0000  0.0000  1.0000
              Bcc     0.0497     6.672     2.381     2.225  0.0841  0.9965  0.0000
 
              Baa    -0.0588    -7.889    -2.815    -2.631  0.0000  0.0000  1.0000
     6 C(13)  Bbb     0.0214     2.877     1.027     0.960  1.0000  0.0000  0.0000
              Bcc     0.0373     5.012     1.788     1.672 -0.0000  1.0000  0.0000
 
              Baa    -0.0496    -2.593    -0.925    -0.865  0.0000  0.0000  1.0000
     7 Cl(35) Bbb     0.0118     0.617     0.220     0.206  1.0000 -0.0000 -0.0000
              Bcc     0.0378     1.976     0.705     0.659  0.0000  1.0000  0.0000
 
              Baa    -0.0054    -2.897    -1.034    -0.966  0.0000  0.0000  1.0000
     8 H(1)   Bbb    -0.0047    -2.529    -0.902    -0.844  0.6701  0.7423  0.0000
              Bcc     0.0102     5.426     1.936     1.810  0.7423 -0.6701 -0.0000
 
              Baa    -0.0121    -6.451    -2.302    -2.152  0.0000  0.0000  1.0000
     9 H(1)   Bbb    -0.0105    -5.599    -1.998    -1.868  0.1806  0.9836  0.0000
              Bcc     0.0226    12.051     4.300     4.020  0.9836 -0.1806 -0.0000
 
              Baa    -0.0121    -6.451    -2.302    -2.152  0.0000  0.0000  1.0000
    10 H(1)   Bbb    -0.0105    -5.599    -1.998    -1.868 -0.1806  0.9836 -0.0000
              Bcc     0.0226    12.050     4.300     4.020  0.9836  0.1806  0.0000
 
              Baa    -0.0054    -2.897    -1.034    -0.966  0.0000  0.0000  1.0000
    11 H(1)   Bbb    -0.0047    -2.529    -0.903    -0.844 -0.6701  0.7423 -0.0000
              Bcc     0.0102     5.427     1.936     1.810  0.7423  0.6701  0.0000
 

 ---------------------------------------------------------------------------------

 Calling FoFJK, ICntrl=      2127 FMM=F ISym2X=1 I1Cent= 0 IOpClX= 1 NMat=1 NMatS=1 NMatT=0.
 ***** Axes restored to original set *****
 -------------------------------------------------------------------
 Center     Atomic                   Forces (Hartrees/Bohr)
 Number     Number              X              Y              Z
 -------------------------------------------------------------------
      1        6           0.000139751    0.000333471   -0.000000000
      2        6          -0.007277748   -0.006469502   -0.000000000
      3        6           0.013491817    0.008291472   -0.000000000
      4        6          -0.009055534   -0.003569914    0.000000000
      5        6           0.000359201    0.000028642   -0.000000000
      6        6           0.025602219    0.015736590   -0.000000000
      7       17          -0.019621991   -0.012059233   -0.000000000
      8        1           0.008028519   -0.006935184   -0.000000000
      9        1          -0.000468922   -0.009440164   -0.000000000
     10        1          -0.008637525    0.003847392    0.000000000
     11        1          -0.002559787    0.010236430   -0.000000000
 -------------------------------------------------------------------
 Cartesian Forces:  Max     0.025602219 RMS     0.008306265

 GradGradGradGradGradGradGradGradGradGradGradGradGradGradGradGradGradGrad
 Berny optimization.
 FormGI is forming the generalized inverse of G from B-inverse, IUseBI=4.
 Internal  Forces:  Max     0.023031449 RMS     0.006217252
 Search for a local minimum.
 Step number   1 out of a maximum of   57
 All quantities printed in internal units (Hartrees-Bohrs-Radians)
 Mixed Optimization -- RFO/linear search
 Second derivative matrix not updated -- first step.
 ITU=  0
     Eigenvalues ---    0.01992   0.01993   0.01995   0.01996   0.02050
     Eigenvalues ---    0.02137   0.02176   0.02393   0.16000   0.16000
     Eigenvalues ---    0.16000   0.16000   0.22000   0.22905   0.23873
     Eigenvalues ---    0.25000   0.33824   0.33834   0.34072   0.34073
     Eigenvalues ---    0.35994   0.41077   0.42089   0.44443   0.44509
     Eigenvalues ---    0.48994   0.50328
 RFO step:  Lambda=-5.40390162D-03 EMin= 1.99182118D-02
 Linear search not attempted -- first point.
 Iteration  1 RMS(Cart)=  0.02567953 RMS(Int)=  0.00026304
 Iteration  2 RMS(Cart)=  0.00039110 RMS(Int)=  0.00006974
 Iteration  3 RMS(Cart)=  0.00000007 RMS(Int)=  0.00006974
 ClnCor:  largest displacement from symmetrization is 4.22D-13 for atom     7.
 Variable       Old X    -DE/DX   Delta X   Delta X   Delta X     New X
                                 (Linear)    (Quad)   (Total)
    R1        2.65851  -0.00703   0.00000  -0.01561  -0.01561   2.64290
    R2        2.65947  -0.01353   0.00000  -0.03091  -0.03101   2.62846
    R3        2.07628  -0.01034   0.00000  -0.03009  -0.03009   2.04619
    R4        2.59144  -0.00190   0.00000  -0.00297  -0.00288   2.58856
    R5        2.07207  -0.00944   0.00000  -0.02727  -0.02727   2.04479
    R6        2.59144  -0.00190   0.00000  -0.00297  -0.00288   2.58856
    R7        2.65851  -0.00703   0.00000  -0.01561  -0.01561   2.64290
    R8        2.07208  -0.00944   0.00000  -0.02729  -0.02729   2.04479
    R9        2.65946  -0.01353   0.00000  -0.03091  -0.03101   2.62846
   R10        2.07611  -0.01028   0.00000  -0.02991  -0.02991   2.04619
   R11        3.21091   0.02303   0.00000   0.06304   0.06304   3.27395
    A1        2.08137   0.00225   0.00000   0.00667   0.00656   2.08793
    A2        2.09810   0.00133   0.00000   0.01153   0.01158   2.10968
    A3        2.10372  -0.00358   0.00000  -0.01819  -0.01814   2.08558
    A4        2.00976   0.00666   0.00000   0.02952   0.02960   2.03936
    A5        2.12826  -0.00380   0.00000  -0.01761  -0.01766   2.11060
    A6        2.14517  -0.00286   0.00000  -0.01190  -0.01194   2.13322
    A7        2.25360  -0.01555   0.00000  -0.05910  -0.05884   2.19476
    A8        2.00976   0.00666   0.00000   0.02952   0.02961   2.03936
    A9        2.14517  -0.00286   0.00000  -0.01190  -0.01195   2.13322
   A10        2.12826  -0.00380   0.00000  -0.01762  -0.01766   2.11060
   A11        2.08138   0.00225   0.00000   0.00666   0.00655   2.08792
   A12        2.09809   0.00133   0.00000   0.01153   0.01159   2.10968
   A13        2.10371  -0.00358   0.00000  -0.01819  -0.01813   2.08558
   A14        2.13050  -0.00228   0.00000  -0.01326  -0.01347   2.11703
   A15        2.07634   0.00114   0.00000   0.00663   0.00674   2.08308
   A16        2.07634   0.00114   0.00000   0.00663   0.00673   2.08307
    D1        0.00000   0.00000   0.00000   0.00000   0.00000   0.00000
    D2        3.14159   0.00000   0.00000  -0.00000   0.00000   3.14159
    D3        3.14159  -0.00000   0.00000   0.00000   0.00000   3.14159
    D4        0.00000  -0.00000   0.00000  -0.00000   0.00000   0.00000
    D5        0.00000   0.00000   0.00000  -0.00000   0.00000   0.00000
    D6        3.14159   0.00000   0.00000  -0.00000   0.00000   3.14159
    D7        3.14159  -0.00000   0.00000  -0.00000   0.00000   3.14159
    D8        0.00000  -0.00000   0.00000  -0.00000   0.00000   0.00000
    D9        0.00000  -0.00000   0.00000  -0.00000   0.00000   0.00000
   D10        3.14159   0.00000   0.00000   0.00000   0.00000   3.14159
   D11        0.00000   0.00000   0.00000   0.00000   0.00000   0.00000
   D12        3.14159   0.00000   0.00000   0.00000   0.00000   3.14159
   D13        0.00000  -0.00000   0.00000  -0.00000   0.00000   0.00000
   D14        3.14159  -0.00000   0.00000  -0.00000   0.00000   3.14159
   D15        3.14159  -0.00000   0.00000  -0.00000   0.00000   3.14159
   D16        0.00000   0.00000   0.00000   0.00000   0.00000   0.00000
   D17        0.00000  -0.00000   0.00000   0.00000   0.00000   0.00000
   D18        3.14159   0.00000   0.00000   0.00000   0.00000   3.14159
   D19        3.14159  -0.00000   0.00000   0.00000   0.00000   3.14159
   D20        0.00000  -0.00000   0.00000   0.00000   0.00000   0.00000
         Item               Value     Threshold  Converged?
 Maximum Force            0.023031     0.000450     NO 
 RMS     Force            0.006217     0.000300     NO 
 Maximum Displacement     0.068368     0.001800     NO 
 RMS     Displacement     0.025746     0.001200     NO 
 Predicted change in Energy=-2.747257D-03
 GradGradGradGradGradGradGradGradGradGradGradGradGradGradGradGradGradGrad

                          Input orientation:                          
 ---------------------------------------------------------------------
 Center     Atomic      Atomic             Coordinates (Angstroms)
 Number     Number       Type             X           Y           Z
 ---------------------------------------------------------------------
      1          6           0       -3.202161    0.197727   -0.000000
      2          6           0       -2.014199    0.935777   -0.000000
      3          6           0       -0.843776    0.224101   -0.000000
      4          6           0       -0.737522   -1.141579   -0.000000
      5          6           0       -1.932589   -1.868070   -0.000000
      6          6           0       -3.148232   -1.192146   -0.000000
      7         17           0       -4.624265   -2.099270   -0.000000
      8          1           0       -4.164588    0.693894   -0.000000
      9          1           0       -2.031627    2.017696   -0.000000
     10          1           0        0.219861   -1.645831   -0.000000
     11          1           0       -1.924653   -2.950839   -0.000000
 ---------------------------------------------------------------------
                    Distance matrix (angstroms):
                    1          2          3          4          5
     1  C    0.000000
     2  C    1.398560   0.000000
     3  C    2.358533   1.369808   0.000000
     4  C    2.805029   2.438301   1.369808   0.000000
     5  C    2.424733   2.805034   2.358537   1.398561   0.000000
     6  C    1.390919   2.411242   2.704861   2.411240   1.390920
     7  Cl   2.701588   4.002994   4.437359   4.002992   2.701587
     8  H    1.082796   2.163950   3.353878   3.887640   3.397863
     9  H    2.163893   1.082059   2.151272   3.414048   3.887027
    10  H    3.887021   3.414047   2.151271   1.082059   2.163893
    11  H    3.397866   3.887647   3.353884   2.163954   1.082798
                    6          7          8          9         10
     6  C    0.000000
     7  Cl   1.732498   0.000000
     8  H    2.142458   2.830737   0.000000
     9  H    3.398513   4.865304   2.510373   0.000000
    10  H    3.398511   4.865302   4.969678   4.300072   0.000000
    11  H    2.142463   2.830738   4.278012   4.969686   2.510375
                   11
    11  H    0.000000
 Stoichiometry    C6H4Cl(2)
 Framework group  CS[SG(C6H4Cl)]
 Deg. of freedom    19
 Full point group                 CS      NOp   2
 Largest Abelian subgroup         CS      NOp   2
 Largest concise Abelian subgroup C1      NOp   1
                         Standard orientation:                         
 ---------------------------------------------------------------------
 Center     Atomic      Atomic             Coordinates (Angstroms)
 Number     Number       Type             X           Y           Z
 ---------------------------------------------------------------------
      1          6           0       -1.212365   -0.235657    0.000000
      2          6           0       -1.219151   -1.634202    0.000000
      3          6           0       -0.000000   -2.258736    0.000000
      4          6           0        1.219150   -1.634199    0.000000
      5          6           0        1.212368   -0.235654    0.000000
      6          6           0       -0.000000    0.446125    0.000000
      7         17           0       -0.000000    2.178623    0.000000
      8          1           0       -2.139004    0.324510    0.000000
      9          1           0       -2.150037   -2.185838    0.000000
     10          1           0        2.150035   -2.185837    0.000000
     11          1           0        2.139008    0.324514    0.000000
 ---------------------------------------------------------------------
 Rotational constants (GHZ):           5.6474624           1.6594075           1.2825521
 Standard basis: 6-311++G(d,p) (5D, 7F)
 There are   149 symmetry adapted cartesian basis functions of A'  symmetry.
 There are    48 symmetry adapted cartesian basis functions of A"  symmetry.
 There are   142 symmetry adapted basis functions of A'  symmetry.
 There are    48 symmetry adapted basis functions of A"  symmetry.
   190 basis functions,   305 primitive gaussians,   197 cartesian basis functions
    29 alpha electrons       28 beta electrons
       nuclear repulsion energy       306.1581779889 Hartrees.
 NAtoms=   11 NActive=   11 NUniq=   11 SFac= 1.00D+00 NAtFMM=   60 NAOKFM=F Big=F
 Integral buffers will be    131072 words long.
 Raffenetti 2 integral format.
 Two-electron integral symmetry is turned on.
 One-electron integrals computed using PRISM.
 NBasis=   190 RedAO= T EigKep=  1.89D-06  NBF=   142    48
 NBsUse=   190 1.00D-06 EigRej= -1.00D+00 NBFU=   142    48
 Initial guess from the checkpoint file:  "frequency_chks/14-1_-ClBzNeutralRadical_Freq.chk"
 B after Tr=     0.000000   -0.000000   -0.000000
         Rot=    1.000000    0.000000   -0.000000    0.000000 Ang=   0.00 deg.
 Initial guess orbital symmetries:
 Alpha Orbitals:
       Occupied  (A') (A') (A') (A') (A') (A') (A') (A') (A') (A')
                 (A") (A') (A') (A') (A') (A') (A') (A') (A') (A')
                 (A') (A") (A') (A') (A") (A') (A") (A') (A")
       Virtual   (A") (A') (A") (A') (A') (A') (A') (A") (A') (A')
                 (A") (A") (A') (A') (A') (A') (A") (A") (A') (A')
                 (A') (A") (A') (A') (A") (A') (A') (A') (A") (A')
                 (A') (A') (A') (A') (A') (A') (A') (A') (A') (A')
                 (A') (A') (A') (A') (A') (A') (A") (A') (A') (A")
                 (A') (A') (A') (A") (A") (A') (A') (A') (A") (A")
                 (A') (A") (A') (A') (A') (A') (A') (A') (A") (A')
                 (A') (A') (A') (A") (A') (A') (A') (A') (A') (A")
                 (A") (A') (A") (A") (A') (A') (A") (A') (A") (A')
                 (A') (A') (A') (A") (A') (A") (A") (A') (A') (A')
                 (A') (A") (A') (A') (A") (A') (A") (A") (A') (A')
                 (A') (A") (A') (A") (A') (A") (A") (A') (A') (A')
                 (A') (A') (A') (A') (A') (A") (A') (A') (A') (A')
                 (A') (A") (A") (A") (A") (A') (A') (A") (A') (A')
                 (A') (A') (A') (A') (A') (A') (A') (A') (A') (A')
                 (A') (A') (A') (A') (A') (A') (A') (A") (A') (A')
                 (A')
 Beta  Orbitals:
       Occupied  (A') (A') (A') (A') (A') (A') (A') (A') (A') (A")
                 (A') (A') (A') (A') (A') (A') (A') (A') (A') (A')
                 (A') (A") (A') (A') (A") (A') (A") (A")
       Virtual   (A') (A") (A') (A') (A") (A') (A') (A') (A") (A')
                 (A') (A") (A") (A') (A') (A') (A") (A') (A') (A")
                 (A') (A") (A') (A') (A') (A') (A") (A') (A') (A')
                 (A") (A') (A') (A') (A') (A') (A') (A') (A') (A')
                 (A') (A') (A') (A') (A') (A') (A') (A") (A') (A')
                 (A') (A") (A') (A') (A') (A") (A") (A') (A') (A")
                 (A") (A') (A") (A') (A') (A') (A') (A') (A') (A')
                 (A") (A') (A') (A') (A") (A') (A') (A') (A') (A')
                 (A") (A") (A') (A") (A") (A') (A') (A') (A") (A")
                 (A') (A') (A') (A') (A") (A") (A') (A") (A') (A')
                 (A') (A') (A") (A') (A') (A") (A') (A") (A") (A')
                 (A') (A') (A") (A') (A") (A') (A") (A") (A') (A')
                 (A') (A') (A') (A') (A') (A') (A") (A') (A') (A')
                 (A') (A') (A") (A") (A") (A") (A') (A') (A") (A')
                 (A') (A') (A') (A') (A') (A') (A') (A') (A') (A')
                 (A') (A') (A') (A') (A') (A') (A') (A') (A") (A')
                 (A') (A')
 Initial guess <Sx>= 0.0000 <Sy>= 0.0000 <Sz>= 0.5000 <S**2>= 0.7628 S= 0.5064
 ExpMin= 3.60D-02 ExpMax= 1.06D+05 ExpMxC= 3.62D+03 IAcc=3 IRadAn=         5 AccDes= 0.00D+00
 Harris functional with IExCor= 1009 and IRadAn=       5 diagonalized for initial guess.
 HarFok:  IExCor= 1009 AccDes= 0.00D+00 IRadAn=         5 IDoV= 1 UseB2=F ITyADJ=14
 ICtDFT=  3500011 ScaDFX=  1.000000  1.000000  1.000000  1.000000
 FoFCou: FMM=F IPFlag=           0 FMFlag=      100000 FMFlg1=           0
         NFxFlg=           0 DoJE=T BraDBF=F KetDBF=T FulRan=T
         wScrn=  0.000000 ICntrl=       500 IOpCl=  0 I1Cent=   200000004 NGrid=           0
         NMat0=    1 NMatS0=      1 NMatT0=    0 NMatD0=    1 NMtDS0=    0 NMtDT0=    0
 Petite list used in FoFCou.
 Keep R1 and R2 ints in memory in symmetry-blocked form, NReq=262273818.
 Requested convergence on RMS density matrix=1.00D-08 within 128 cycles.
 Requested convergence on MAX density matrix=1.00D-06.
 Requested convergence on             energy=1.00D-06.
 No special actions if energy rises.
 SCF Done:  E(UM062X) =  -691.112586987     A.U. after   16 cycles
            NFock= 16  Conv=0.31D-08     -V/T= 2.0027
 <Sx>= 0.0000 <Sy>= 0.0000 <Sz>= 0.5000 <S**2>= 0.7624 S= 0.5062
 <L.S>=  0.00000000000    
 Annihilation of the first spin contaminant:
 S**2 before annihilation     0.7624,   after     0.7501
 Calling FoFJK, ICntrl=      2127 FMM=F ISym2X=1 I1Cent= 0 IOpClX= 1 NMat=1 NMatS=1 NMatT=0.
 ***** Axes restored to original set *****
 -------------------------------------------------------------------
 Center     Atomic                   Forces (Hartrees/Bohr)
 Number     Number              X              Y              Z
 -------------------------------------------------------------------
      1        6          -0.001152834    0.001638964    0.000000000
      2        6          -0.003315118   -0.002210782   -0.000000000
      3        6           0.003982643    0.002447354   -0.000000000
      4        6          -0.003469791   -0.001959894    0.000000000
      5        6           0.000941694   -0.001768189   -0.000000000
      6        6           0.007176220    0.004409177   -0.000000000
      7       17          -0.004333551   -0.002663042    0.000000000
      8        1          -0.000078021    0.000499206   -0.000000000
      9        1          -0.000587926    0.000775547    0.000000000
     10        1           0.000426525   -0.000874866   -0.000000000
     11        1           0.000410159   -0.000293474   -0.000000000
 -------------------------------------------------------------------
 Cartesian Forces:  Max     0.007176220 RMS     0.002207784

 GradGradGradGradGradGradGradGradGradGradGradGradGradGradGradGradGradGrad
 Berny optimization.
 Using GEDIIS/GDIIS optimizer.
 FormGI is forming the generalized inverse of G from B-inverse, IUseBI=4.
 Internal  Forces:  Max     0.005086399 RMS     0.001225344
 Search for a local minimum.
 Step number   2 out of a maximum of   57
 All quantities printed in internal units (Hartrees-Bohrs-Radians)
 Mixed Optimization -- RFO/linear search
 Update second derivatives using D2CorX and points    1    2
 DE= -2.92D-03 DEPred=-2.75D-03 R= 1.06D+00
 TightC=F SS=  1.41D+00  RLast= 1.31D-01 DXNew= 5.0454D-01 3.9227D-01
 Trust test= 1.06D+00 RLast= 1.31D-01 DXMaxT set to 3.92D-01
 ITU=  1  0
 Use linear search instead of GDIIS.
     Eigenvalues ---    0.01992   0.01994   0.01995   0.01996   0.02050
     Eigenvalues ---    0.02139   0.02178   0.02385   0.15897   0.16000
     Eigenvalues ---    0.16000   0.16192   0.20998   0.22000   0.24856
     Eigenvalues ---    0.25000   0.32411   0.33829   0.33971   0.34073
     Eigenvalues ---    0.35615   0.40950   0.41800   0.44219   0.44443
     Eigenvalues ---    0.50273   0.51559
 RFO step:  Lambda=-2.09848933D-04 EMin= 1.99182118D-02
 Quartic linear search produced a step of  0.08002.
 Iteration  1 RMS(Cart)=  0.00421899 RMS(Int)=  0.00001306
 Iteration  2 RMS(Cart)=  0.00001657 RMS(Int)=  0.00000741
 Iteration  3 RMS(Cart)=  0.00000000 RMS(Int)=  0.00000741
 ClnCor:  largest displacement from symmetrization is 2.94D-10 for atom     7.
 Variable       Old X    -DE/DX   Delta X   Delta X   Delta X     New X
                                 (Linear)    (Quad)   (Total)
    R1        2.64290  -0.00175  -0.00125  -0.00357  -0.00482   2.63808
    R2        2.62846   0.00021  -0.00248   0.00163  -0.00086   2.62759
    R3        2.04619   0.00030  -0.00241   0.00226  -0.00015   2.04604
    R4        2.58856   0.00294  -0.00023   0.00657   0.00635   2.59491
    R5        2.04479   0.00078  -0.00218   0.00367   0.00149   2.04628
    R6        2.58856   0.00294  -0.00023   0.00657   0.00635   2.59491
    R7        2.64290  -0.00175  -0.00125  -0.00357  -0.00482   2.63808
    R8        2.04479   0.00079  -0.00218   0.00367   0.00149   2.04628
    R9        2.62846   0.00021  -0.00248   0.00163  -0.00086   2.62760
   R10        2.04619   0.00030  -0.00239   0.00224  -0.00015   2.04604
   R11        3.27395   0.00509   0.00504   0.01253   0.01757   3.29152
    A1        2.08793  -0.00112   0.00052  -0.00623  -0.00572   2.08221
    A2        2.10968   0.00014   0.00093  -0.00038   0.00055   2.11023
    A3        2.08558   0.00098  -0.00145   0.00661   0.00517   2.09075
    A4        2.03936   0.00102   0.00237   0.00406   0.00644   2.04580
    A5        2.11060  -0.00110  -0.00141  -0.00587  -0.00728   2.10332
    A6        2.13322   0.00008  -0.00096   0.00180   0.00084   2.13406
    A7        2.19476  -0.00196  -0.00471  -0.00485  -0.00953   2.18523
    A8        2.03936   0.00102   0.00237   0.00406   0.00644   2.04580
    A9        2.13322   0.00008  -0.00096   0.00180   0.00084   2.13406
   A10        2.11060  -0.00110  -0.00141  -0.00586  -0.00728   2.10332
   A11        2.08792  -0.00112   0.00052  -0.00622  -0.00571   2.08221
   A12        2.10968   0.00014   0.00093  -0.00039   0.00055   2.11023
   A13        2.08558   0.00098  -0.00145   0.00661   0.00517   2.09075
   A14        2.11703   0.00216  -0.00108   0.00918   0.00808   2.12511
   A15        2.08308  -0.00108   0.00054  -0.00459  -0.00404   2.07904
   A16        2.08307  -0.00108   0.00054  -0.00459  -0.00404   2.07904
    D1        0.00000  -0.00000   0.00000  -0.00000   0.00000   0.00000
    D2        3.14159  -0.00000   0.00000  -0.00000   0.00000   3.14159
    D3        3.14159  -0.00000   0.00000  -0.00000   0.00000   3.14159
    D4        0.00000  -0.00000   0.00000  -0.00000   0.00000   0.00000
    D5        0.00000   0.00000   0.00000   0.00000   0.00000   0.00000
    D6        3.14159   0.00000   0.00000   0.00000   0.00000   3.14159
    D7        3.14159   0.00000   0.00000   0.00000   0.00000   3.14159
    D8        0.00000   0.00000   0.00000   0.00000   0.00000   0.00000
    D9        0.00000   0.00000   0.00000   0.00000   0.00000   0.00000
   D10        3.14159   0.00000   0.00000   0.00000   0.00000   3.14159
   D11        0.00000   0.00000   0.00000   0.00000   0.00000   0.00000
   D12        3.14159   0.00000   0.00000   0.00000   0.00000   3.14159
   D13        0.00000  -0.00000   0.00000  -0.00000   0.00000   0.00000
   D14        3.14159  -0.00000   0.00000  -0.00000   0.00000   3.14159
   D15        3.14159  -0.00000   0.00000  -0.00000   0.00000   3.14159
   D16        0.00000  -0.00000   0.00000  -0.00000   0.00000   0.00000
   D17        0.00000  -0.00000   0.00000   0.00000   0.00000   0.00000
   D18        3.14159  -0.00000   0.00000   0.00000   0.00000   3.14159
   D19        3.14159   0.00000   0.00000   0.00000   0.00000   3.14159
   D20        0.00000  -0.00000   0.00000   0.00000   0.00000   0.00000
         Item               Value     Threshold  Converged?
 Maximum Force            0.005086     0.000450     NO 
 RMS     Force            0.001225     0.000300     NO 
 Maximum Displacement     0.013838     0.001800     NO 
 RMS     Displacement     0.004216     0.001200     NO 
 Predicted change in Energy=-1.217366D-04
 GradGradGradGradGradGradGradGradGradGradGradGradGradGradGradGradGradGrad

                          Input orientation:                          
 ---------------------------------------------------------------------
 Center     Atomic      Atomic             Coordinates (Angstroms)
 Number     Number       Type             X           Y           Z
 ---------------------------------------------------------------------
      1          6           0       -3.202470    0.200292   -0.000000
      2          6           0       -2.015439    0.935008   -0.000000
      3          6           0       -0.838757    0.227184   -0.000000
      4          6           0       -0.738767   -1.142339   -0.000000
      5          6           0       -1.930440   -1.869501   -0.000000
      6          6           0       -3.142945   -1.188897   -0.000000
      7         17           0       -4.626900   -2.100889   -0.000000
      8          1           0       -4.164266    0.697506   -0.000000
      9          1           0       -2.038950    2.017598   -0.000000
     10          1           0        0.216468   -1.652321   -0.000000
     11          1           0       -1.921284   -2.952181   -0.000000
 ---------------------------------------------------------------------
                    Distance matrix (angstroms):
                    1          2          3          4          5
     1  C    0.000000
     2  C    1.396012   0.000000
     3  C    2.363865   1.373169   0.000000
     4  C    2.805796   2.438290   1.373168   0.000000
     5  C    2.429424   2.805796   2.363866   1.396012   0.000000
     6  C    1.390463   2.404629   2.704545   2.404629   1.390464
     7  Cl   2.706369   4.004547   4.446341   4.004547   2.706369
     8  H    1.082716   2.161913   3.358603   3.888325   3.402867
     9  H    2.157865   1.082846   2.155468   3.416969   3.888613
    10  H    3.888613   3.416969   2.155467   1.082846   2.157865
    11  H    3.402870   3.888329   3.358605   2.161915   1.082719
                    6          7          8          9         10
     6  C    0.000000
     7  Cl   1.741796   0.000000
     8  H    2.145137   2.836379   0.000000
     9  H    3.391226   4.864095   2.501922   0.000000
    10  H    3.391226   4.864095   4.971168   4.307576   0.000000
    11  H    2.145140   2.836380   4.283828   4.971172   2.501923
                   11
    11  H    0.000000
 Stoichiometry    C6H4Cl(2)
 Framework group  CS[SG(C6H4Cl)]
 Deg. of freedom    19
 Full point group                 CS      NOp   2
 Largest Abelian subgroup         CS      NOp   2
 Largest concise Abelian subgroup C1      NOp   1
                         Standard orientation:                         
 ---------------------------------------------------------------------
 Center     Atomic      Atomic             Coordinates (Angstroms)
 Number     Number       Type             X           Y           Z
 ---------------------------------------------------------------------
      1          6           0       -1.214712   -0.236610    0.000000
      2          6           0       -1.219145   -1.632615    0.000000
      3          6           0       -0.000000   -2.264499    0.000000
      4          6           0        1.219145   -1.632615    0.000000
      5          6           0        1.214712   -0.236610    0.000000
      6          6           0       -0.000000    0.440046    0.000000
      7         17           0       -0.000000    2.181842    0.000000
      8          1           0       -2.141913    0.322472    0.000000
      9          1           0       -2.153788   -2.179421    0.000000
     10          1           0        2.153788   -2.179422    0.000000
     11          1           0        2.141915    0.322473    0.000000
 ---------------------------------------------------------------------
 Rotational constants (GHZ):           5.6352490           1.6563240           1.2800802
 Standard basis: 6-311++G(d,p) (5D, 7F)
 There are   149 symmetry adapted cartesian basis functions of A'  symmetry.
 There are    48 symmetry adapted cartesian basis functions of A"  symmetry.
 There are   142 symmetry adapted basis functions of A'  symmetry.
 There are    48 symmetry adapted basis functions of A"  symmetry.
   190 basis functions,   305 primitive gaussians,   197 cartesian basis functions
    29 alpha electrons       28 beta electrons
       nuclear repulsion energy       305.8488725357 Hartrees.
 NAtoms=   11 NActive=   11 NUniq=   11 SFac= 1.00D+00 NAtFMM=   60 NAOKFM=F Big=F
 Integral buffers will be    131072 words long.
 Raffenetti 2 integral format.
 Two-electron integral symmetry is turned on.
 One-electron integrals computed using PRISM.
 NBasis=   190 RedAO= T EigKep=  1.89D-06  NBF=   142    48
 NBsUse=   190 1.00D-06 EigRej= -1.00D+00 NBFU=   142    48
 Initial guess from the checkpoint file:  "frequency_chks/14-1_-ClBzNeutralRadical_Freq.chk"
 B after Tr=    -0.000000    0.000000   -0.000000
         Rot=    1.000000   -0.000000    0.000000    0.000000 Ang=   0.00 deg.
 Initial guess orbital symmetries:
 Alpha Orbitals:
       Occupied  (A') (A') (A') (A') (A') (A') (A') (A') (A') (A')
                 (A") (A') (A') (A') (A') (A') (A') (A') (A') (A')
                 (A') (A") (A') (A') (A") (A') (A") (A') (A")
       Virtual   (A") (A') (A") (A') (A') (A') (A') (A") (A') (A')
                 (A") (A") (A') (A') (A') (A") (A') (A") (A') (A')
                 (A') (A") (A') (A') (A') (A") (A') (A') (A") (A')
                 (A') (A') (A') (A') (A') (A') (A') (A') (A') (A')
                 (A') (A') (A') (A') (A') (A") (A') (A') (A') (A")
                 (A') (A') (A') (A") (A") (A') (A') (A") (A') (A")
                 (A') (A") (A') (A') (A') (A') (A') (A') (A') (A")
                 (A') (A') (A') (A") (A') (A') (A') (A') (A') (A")
                 (A") (A') (A") (A") (A') (A') (A") (A') (A") (A')
                 (A') (A') (A') (A") (A') (A") (A") (A') (A') (A')
                 (A') (A") (A') (A') (A") (A') (A") (A") (A') (A')
                 (A') (A') (A") (A") (A') (A") (A") (A') (A') (A')
                 (A') (A') (A') (A') (A") (A') (A') (A') (A') (A')
                 (A') (A") (A") (A") (A") (A') (A') (A") (A') (A')
                 (A') (A') (A') (A') (A') (A') (A') (A') (A') (A')
                 (A') (A') (A') (A') (A') (A') (A') (A") (A') (A')
                 (A')
 Beta  Orbitals:
       Occupied  (A') (A') (A') (A') (A') (A') (A') (A') (A') (A")
                 (A') (A') (A') (A') (A') (A') (A') (A') (A') (A')
                 (A') (A") (A') (A') (A") (A') (A") (A")
       Virtual   (A') (A") (A') (A') (A") (A') (A') (A') (A") (A')
                 (A') (A") (A") (A') (A') (A') (A") (A') (A') (A")
                 (A') (A') (A") (A') (A') (A') (A") (A') (A') (A')
                 (A') (A') (A") (A') (A') (A') (A') (A') (A') (A')
                 (A') (A') (A') (A') (A') (A') (A") (A') (A') (A')
                 (A') (A") (A') (A') (A') (A") (A") (A') (A") (A')
                 (A") (A') (A") (A') (A') (A') (A') (A') (A') (A')
                 (A") (A') (A') (A') (A") (A') (A') (A') (A') (A')
                 (A") (A") (A') (A") (A") (A') (A') (A') (A") (A")
                 (A') (A') (A') (A') (A") (A') (A") (A") (A') (A')
                 (A') (A') (A") (A') (A') (A") (A') (A") (A") (A')
                 (A') (A') (A') (A") (A") (A') (A") (A") (A') (A')
                 (A') (A') (A') (A') (A') (A") (A') (A') (A') (A')
                 (A') (A') (A") (A") (A") (A") (A') (A') (A") (A')
                 (A') (A') (A') (A') (A') (A') (A') (A') (A') (A')
                 (A') (A') (A') (A') (A') (A') (A') (A') (A") (A')
                 (A') (A')
 Initial guess <Sx>= 0.0000 <Sy>= 0.0000 <Sz>= 0.5000 <S**2>= 0.7624 S= 0.5062
 Keep R1 and R2 ints in memory in symmetry-blocked form, NReq=262273818.
 Requested convergence on RMS density matrix=1.00D-08 within 128 cycles.
 Requested convergence on MAX density matrix=1.00D-06.
 Requested convergence on             energy=1.00D-06.
 No special actions if energy rises.
 SCF Done:  E(UM062X) =  -691.112724628     A.U. after   14 cycles
            NFock= 14  Conv=0.53D-08     -V/T= 2.0027
 <Sx>= 0.0000 <Sy>= 0.0000 <Sz>= 0.5000 <S**2>= 0.7626 S= 0.5063
 <L.S>=  0.00000000000    
 Annihilation of the first spin contaminant:
 S**2 before annihilation     0.7626,   after     0.7501
 Calling FoFJK, ICntrl=      2127 FMM=F ISym2X=1 I1Cent= 0 IOpClX= 1 NMat=1 NMatS=1 NMatT=0.
 ***** Axes restored to original set *****
 -------------------------------------------------------------------
 Center     Atomic                   Forces (Hartrees/Bohr)
 Number     Number              X              Y              Z
 -------------------------------------------------------------------
      1        6          -0.000966014   -0.000350294    0.000000000
      2        6           0.000422952   -0.000328377   -0.000000000
      3        6           0.000213822    0.000131728   -0.000000000
      4        6          -0.000101783    0.000525382   -0.000000000
      5        6          -0.000749087   -0.000705222    0.000000000
      6        6           0.001874564    0.001151663   -0.000000000
      7       17          -0.001086950   -0.000667998    0.000000000
      8        1          -0.000099655    0.000167542   -0.000000000
      9        1           0.000050446    0.000352508   -0.000000000
     10        1           0.000337306   -0.000114275   -0.000000000
     11        1           0.000104397   -0.000162657   -0.000000000
 -------------------------------------------------------------------
 Cartesian Forces:  Max     0.001874564 RMS     0.000537884

 GradGradGradGradGradGradGradGradGradGradGradGradGradGradGradGradGradGrad
 Berny optimization.
 Using GEDIIS/GDIIS optimizer.
 FormGI is forming the generalized inverse of G from B-inverse, IUseBI=4.
 Internal  Forces:  Max     0.001275806 RMS     0.000265306
 Search for a local minimum.
 Step number   3 out of a maximum of   57
 All quantities printed in internal units (Hartrees-Bohrs-Radians)
 Mixed Optimization -- En-DIIS/RFO-DIIS
 Update second derivatives using D2CorX and points    1    2    3
 DE= -1.38D-04 DEPred=-1.22D-04 R= 1.13D+00
 TightC=F SS=  1.41D+00  RLast= 3.07D-02 DXNew= 6.5972D-01 9.1987D-02
 Trust test= 1.13D+00 RLast= 3.07D-02 DXMaxT set to 3.92D-01
 ITU=  1  1  0
 Use linear search instead of GDIIS.
     Eigenvalues ---    0.01992   0.01994   0.01995   0.01996   0.02050
     Eigenvalues ---    0.02140   0.02179   0.02383   0.16000   0.16000
     Eigenvalues ---    0.16002   0.16135   0.18521   0.22000   0.24742
     Eigenvalues ---    0.25000   0.30299   0.33829   0.33954   0.34073
     Eigenvalues ---    0.35523   0.40961   0.42253   0.44443   0.46162
     Eigenvalues ---    0.50265   0.52377
 RFO step:  Lambda=-7.98954675D-06 EMin= 1.99182118D-02
 Quartic linear search produced a step of  0.16123.
 Iteration  1 RMS(Cart)=  0.00084197 RMS(Int)=  0.00000046
 Iteration  2 RMS(Cart)=  0.00000065 RMS(Int)=  0.00000015
 ClnCor:  largest displacement from symmetrization is 8.37D-12 for atom     7.
 Variable       Old X    -DE/DX   Delta X   Delta X   Delta X     New X
                                 (Linear)    (Quad)   (Total)
    R1        2.63808   0.00054  -0.00078   0.00188   0.00110   2.63918
    R2        2.62759  -0.00005  -0.00014  -0.00024  -0.00038   2.62721
    R3        2.04604   0.00017  -0.00002   0.00036   0.00034   2.04637
    R4        2.59491   0.00004   0.00102  -0.00073   0.00029   2.59521
    R5        2.04628   0.00035   0.00024   0.00081   0.00105   2.04733
    R6        2.59491   0.00004   0.00102  -0.00073   0.00029   2.59521
    R7        2.63808   0.00054  -0.00078   0.00188   0.00110   2.63918
    R8        2.04628   0.00035   0.00024   0.00081   0.00105   2.04733
    R9        2.62760  -0.00005  -0.00014  -0.00024  -0.00038   2.62721
   R10        2.04604   0.00016  -0.00002   0.00036   0.00033   2.04637
   R11        3.29152   0.00128   0.00283   0.00242   0.00525   3.29677
    A1        2.08221  -0.00034  -0.00092  -0.00095  -0.00187   2.08034
    A2        2.11023   0.00006   0.00009   0.00010   0.00019   2.11041
    A3        2.09075   0.00027   0.00083   0.00085   0.00169   2.09243
    A4        2.04580   0.00013   0.00104   0.00014   0.00118   2.04698
    A5        2.10332  -0.00001  -0.00117   0.00083  -0.00035   2.10298
    A6        2.13406  -0.00013   0.00014  -0.00097  -0.00084   2.13323
    A7        2.18523  -0.00006  -0.00154   0.00043  -0.00111   2.18412
    A8        2.04580   0.00013   0.00104   0.00014   0.00118   2.04698
    A9        2.13406  -0.00013   0.00014  -0.00097  -0.00084   2.13323
   A10        2.10332  -0.00001  -0.00117   0.00083  -0.00035   2.10298
   A11        2.08221  -0.00034  -0.00092  -0.00095  -0.00187   2.08034
   A12        2.11023   0.00006   0.00009   0.00010   0.00019   2.11041
   A13        2.09075   0.00027   0.00083   0.00085   0.00168   2.09243
   A14        2.12511   0.00047   0.00130   0.00119   0.00249   2.12760
   A15        2.07904  -0.00024  -0.00065  -0.00059  -0.00124   2.07779
   A16        2.07904  -0.00024  -0.00065  -0.00059  -0.00124   2.07779
    D1       -0.00000   0.00000   0.00000   0.00000   0.00000   0.00000
    D2        3.14159  -0.00000   0.00000   0.00000   0.00000   3.14159
    D3        3.14159  -0.00000   0.00000   0.00000   0.00000   3.14159
    D4        0.00000   0.00000   0.00000   0.00000  -0.00000   0.00000
    D5        0.00000   0.00000   0.00000  -0.00000  -0.00000   0.00000
    D6        3.14159   0.00000   0.00000   0.00000   0.00000   3.14159
    D7        3.14159  -0.00000   0.00000  -0.00000   0.00000   3.14159
    D8        0.00000   0.00000   0.00000   0.00000  -0.00000   0.00000
    D9        0.00000  -0.00000   0.00000  -0.00000  -0.00000   0.00000
   D10        3.14159  -0.00000   0.00000  -0.00000   0.00000   3.14159
   D11       -0.00000   0.00000   0.00000  -0.00000   0.00000   0.00000
   D12        3.14159   0.00000   0.00000  -0.00000   0.00000   3.14159
   D13       -0.00000  -0.00000   0.00000   0.00000   0.00000   0.00000
   D14        3.14159  -0.00000   0.00000   0.00000   0.00000   3.14159
   D15        3.14159  -0.00000   0.00000   0.00000   0.00000   3.14159
   D16        0.00000   0.00000   0.00000   0.00000  -0.00000   0.00000
   D17        0.00000  -0.00000   0.00000   0.00000  -0.00000   0.00000
   D18        3.14159  -0.00000   0.00000  -0.00000   0.00000   3.14159
   D19        3.14159  -0.00000   0.00000   0.00000   0.00000   3.14159
   D20       -0.00000  -0.00000   0.00000  -0.00000   0.00000   0.00000
         Item               Value     Threshold  Converged?
 Maximum Force            0.001276     0.000450     NO 
 RMS     Force            0.000265     0.000300     YES
 Maximum Displacement     0.002736     0.001800     NO 
 RMS     Displacement     0.000842     0.001200     YES
 Predicted change in Energy=-6.640483D-06
 GradGradGradGradGradGradGradGradGradGradGradGradGradGradGradGradGradGrad

                          Input orientation:                          
 ---------------------------------------------------------------------
 Center     Atomic      Atomic             Coordinates (Angstroms)
 Number     Number       Type             X           Y           Z
 ---------------------------------------------------------------------
      1          6           0       -3.203270    0.200579   -0.000000
      2          6           0       -2.015281    0.934856   -0.000000
      3          6           0       -0.838075    0.227603   -0.000000
      4          6           0       -0.738831   -1.142130   -0.000000
      5          6           0       -1.930545   -1.870344   -0.000000
      6          6           0       -3.142025   -1.188332    0.000000
      7         17           0       -4.628348   -2.101779    0.000000
      8          1           0       -4.165005    0.698299    0.000000
      9          1           0       -2.038498    2.018007   -0.000000
     10          1           0        0.217037   -1.652103   -0.000000
     11          1           0       -1.920910   -2.953195    0.000000
 ---------------------------------------------------------------------
                    Distance matrix (angstroms):
                    1          2          3          4          5
     1  C    0.000000
     2  C    1.396595   0.000000
     3  C    2.365349   1.373324   0.000000
     4  C    2.806480   2.437867   1.373324   0.000000
     5  C    2.430751   2.806479   2.365348   1.396595   0.000000
     6  C    1.390261   2.403638   2.704266   2.403638   1.390261
     7  Cl   2.707712   4.006154   4.448841   4.006154   2.707712
     8  H    1.082894   2.162700   3.360062   3.889197   3.404518
     9  H    2.158642   1.083400   2.155588   3.416958   3.889850
    10  H    3.889850   3.416958   2.155588   1.083400   2.158642
    11  H    3.404518   3.889196   3.360061   2.162699   1.082894
                    6          7          8          9         10
     6  C    0.000000
     7  Cl   1.744575   0.000000
     8  H    2.146128   2.838156   0.000000
     9  H    3.390926   4.866206   2.502730   0.000000
    10  H    3.390926   4.866207   4.972593   4.307801   0.000000
    11  H    2.146128   2.838156   4.285951   4.972593   2.502730
                   11
    11  H    0.000000
 Stoichiometry    C6H4Cl(2)
 Framework group  CS[SG(C6H4Cl)]
 Deg. of freedom    19
 Full point group                 CS      NOp   2
 Largest Abelian subgroup         CS      NOp   2
 Largest concise Abelian subgroup C1      NOp   1
                         Standard orientation:                         
 ---------------------------------------------------------------------
 Center     Atomic      Atomic             Coordinates (Angstroms)
 Number     Number       Type             X           Y           Z
 ---------------------------------------------------------------------
      1          6           0        0.236475   -1.215376    0.000000
      2          6           0        1.633066   -1.218934    0.000000
      3          6           0        2.265695    0.000000    0.000000
      4          6           0        1.633066    1.218934    0.000000
      5          6           0        0.236475    1.215376    0.000000
      6          6           0       -0.438571    0.000000    0.000000
[...]
      7       17          -0.000159233   -0.000097867   -0.000000000
      8        1           0.000030598    0.000014165    0.000000000
      9        1           0.000026672   -0.000005490    0.000000000
     10        1           0.000007134    0.000026272    0.000000000
     11        1           0.000026461    0.000020836    0.000000000
 -------------------------------------------------------------------
 Cartesian Forces:  Max     0.000412407 RMS     0.000132993
 FormGI is forming the generalized inverse of G from B-inverse, IUseBI=4.

 GradGradGradGradGradGradGradGradGradGradGradGradGradGradGradGradGradGrad
 Berny optimization.
 Internal  Forces:  Max     0.000199056 RMS     0.000065314
 Search for a local minimum.
 Step number   1 out of a maximum of    2
 All quantities printed in internal units (Hartrees-Bohrs-Radians)
 Second derivative matrix not updated -- analytic derivatives used.
 ITU=  0
     Eigenvalues ---    0.01766   0.01773   0.01970   0.02508   0.02625
     Eigenvalues ---    0.03035   0.03229   0.03416   0.10521   0.10752
     Eigenvalues ---    0.11268   0.11969   0.16715   0.17184   0.19375
     Eigenvalues ---    0.19565   0.27180   0.27464   0.36299   0.36423
     Eigenvalues ---    0.36720   0.36809   0.42357   0.43318   0.47640
     Eigenvalues ---    0.49043   0.52606
 Angle between quadratic step and forces=  15.08 degrees.
 Linear search not attempted -- first point.
 Iteration  1 RMS(Cart)=  0.00034350 RMS(Int)=  0.00000011
 Iteration  2 RMS(Cart)=  0.00000018 RMS(Int)=  0.00000000
 ClnCor:  largest displacement from symmetrization is 2.42D-10 for atom     7.
 Variable       Old X    -DE/DX   Delta X   Delta X   Delta X     New X
                                 (Linear)    (Quad)   (Total)
    R1        2.63918   0.00006   0.00000   0.00028   0.00028   2.63946
    R2        2.62721  -0.00006   0.00000  -0.00022  -0.00022   2.62699
    R3        2.04637  -0.00002   0.00000  -0.00009  -0.00009   2.04629
    R4        2.59521  -0.00012   0.00000  -0.00032  -0.00032   2.59489
    R5        2.04733  -0.00001   0.00000  -0.00003  -0.00003   2.04730
    R6        2.59521  -0.00012   0.00000  -0.00032  -0.00032   2.59489
    R7        2.63918   0.00006   0.00000   0.00028   0.00028   2.63946
    R8        2.04733  -0.00001   0.00000  -0.00003  -0.00003   2.04730
    R9        2.62721  -0.00006   0.00000  -0.00022  -0.00022   2.62699
   R10        2.04637  -0.00002   0.00000  -0.00009  -0.00009   2.04629
   R11        3.29677   0.00019   0.00000   0.00109   0.00109   3.29786
    A1        2.08034  -0.00008   0.00000  -0.00050  -0.00050   2.07984
    A2        2.11041   0.00001   0.00000   0.00010   0.00010   2.11051
    A3        2.09243   0.00007   0.00000   0.00040   0.00040   2.09283
    A4        2.04698  -0.00009   0.00000  -0.00049  -0.00049   2.04650
    A5        2.10298   0.00007   0.00000   0.00051   0.00051   2.10348
    A6        2.13323   0.00002   0.00000  -0.00002  -0.00002   2.13321
    A7        2.18412   0.00020   0.00000   0.00103   0.00103   2.18515
    A8        2.04698  -0.00009   0.00000  -0.00049  -0.00049   2.04650
    A9        2.13323   0.00002   0.00000  -0.00002  -0.00002   2.13321
   A10        2.10298   0.00007   0.00000   0.00051   0.00051   2.10348
   A11        2.08034  -0.00008   0.00000  -0.00050  -0.00050   2.07984
   A12        2.11041   0.00001   0.00000   0.00010   0.00010   2.11051
   A13        2.09243   0.00007   0.00000   0.00040   0.00040   2.09283
   A14        2.12760   0.00014   0.00000   0.00094   0.00094   2.12854
   A15        2.07779  -0.00007   0.00000  -0.00047  -0.00047   2.07732
   A16        2.07779  -0.00007   0.00000  -0.00047  -0.00047   2.07732
    D1       -0.00000   0.00000   0.00000   0.00000   0.00000   0.00000
    D2        3.14159  -0.00000   0.00000   0.00000   0.00000   3.14159
    D3        3.14159   0.00000   0.00000   0.00000   0.00000   3.14159
    D4       -0.00000   0.00000   0.00000   0.00000   0.00000   0.00000
    D5        0.00000  -0.00000   0.00000   0.00000  -0.00000   0.00000
    D6        3.14159  -0.00000   0.00000   0.00000   0.00000   3.14159
    D7        3.14159   0.00000   0.00000   0.00000   0.00000   3.14159
    D8        0.00000   0.00000   0.00000   0.00000   0.00000   0.00000
    D9        0.00000  -0.00000   0.00000  -0.00000   0.00000   0.00000
   D10        3.14159  -0.00000   0.00000  -0.00000   0.00000   3.14159
   D11       -0.00000  -0.00000   0.00000   0.00000   0.00000   0.00000
   D12        3.14159  -0.00000   0.00000   0.00000   0.00000   3.14159
   D13        0.00000   0.00000   0.00000   0.00000   0.00000   0.00000
   D14        3.14159   0.00000   0.00000   0.00000   0.00000   3.14159
   D15        3.14159   0.00000   0.00000   0.00000   0.00000   3.14159
   D16       -0.00000   0.00000   0.00000   0.00000   0.00000   0.00000
   D17        0.00000  -0.00000   0.00000  -0.00000   0.00000   0.00000
   D18        3.14159  -0.00000   0.00000  -0.00000   0.00000   3.14159
   D19        3.14159  -0.00000   0.00000  -0.00000   0.00000   3.14159
   D20       -0.00000   0.00000   0.00000  -0.00000   0.00000   0.00000
         Item               Value     Threshold  Converged?
 Maximum Force            0.000199     0.000450     YES
 RMS     Force            0.000065     0.000300     YES
 Maximum Displacement     0.001130     0.001800     YES
 RMS     Displacement     0.000343     0.001200     YES
 Predicted change in Energy=-5.231510D-07
 Optimization completed.
    -- Stationary point found.
                           ----------------------------
                           !   Optimized Parameters   !
                           ! (Angstroms and Degrees)  !
 --------------------------                            --------------------------
 ! Name  Definition              Value          Derivative Info.                !
 --------------------------------------------------------------------------------
 ! R1    R(1,2)                  1.3966         -DE/DX =    0.0001              !
 ! R2    R(1,6)                  1.3903         -DE/DX =   -0.0001              !
 ! R3    R(1,8)                  1.0829         -DE/DX =    0.0                 !
 ! R4    R(2,3)                  1.3733         -DE/DX =   -0.0001              !
 ! R5    R(2,9)                  1.0834         -DE/DX =    0.0                 !
 ! R6    R(3,4)                  1.3733         -DE/DX =   -0.0001              !
 ! R7    R(4,5)                  1.3966         -DE/DX =    0.0001              !
 ! R8    R(4,10)                 1.0834         -DE/DX =    0.0                 !
 ! R9    R(5,6)                  1.3903         -DE/DX =   -0.0001              !
 ! R10   R(5,11)                 1.0829         -DE/DX =    0.0                 !
 ! R11   R(6,7)                  1.7446         -DE/DX =    0.0002              !
 ! A1    A(2,1,6)              119.1947         -DE/DX =   -0.0001              !
 ! A2    A(2,1,8)              120.9178         -DE/DX =    0.0                 !
 ! A3    A(6,1,8)              119.8875         -DE/DX =    0.0001              !
 ! A4    A(1,2,3)              117.2835         -DE/DX =   -0.0001              !
 ! A5    A(1,2,9)              120.4916         -DE/DX =    0.0001              !
 ! A6    A(3,2,9)              122.2249         -DE/DX =    0.0                 !
 ! A7    A(2,3,4)              125.1411         -DE/DX =    0.0002              !
 ! A8    A(3,4,5)              117.2835         -DE/DX =   -0.0001              !
 ! A9    A(3,4,10)             122.2249         -DE/DX =    0.0                 !
 ! A10   A(5,4,10)             120.4916         -DE/DX =    0.0001              !
 ! A11   A(4,5,6)              119.1947         -DE/DX =   -0.0001              !
 ! A12   A(4,5,11)             120.9178         -DE/DX =    0.0                 !
 ! A13   A(6,5,11)             119.8874         -DE/DX =    0.0001              !
 ! A14   A(1,6,5)              121.9025         -DE/DX =    0.0001              !
 ! A15   A(1,6,7)              119.0487         -DE/DX =   -0.0001              !
 ! A16   A(5,6,7)              119.0487         -DE/DX =   -0.0001              !
 ! D1    D(6,1,2,3)              0.0            -DE/DX =    0.0                 !
 ! D2    D(6,1,2,9)            180.0            -DE/DX =    0.0                 !
 ! D3    D(8,1,2,3)            180.0            -DE/DX =    0.0                 !
 ! D4    D(8,1,2,9)              0.0            -DE/DX =    0.0                 !
 ! D5    D(2,1,6,5)              0.0            -DE/DX =    0.0                 !
 ! D6    D(2,1,6,7)            180.0            -DE/DX =    0.0                 !
 ! D7    D(8,1,6,5)            180.0            -DE/DX =    0.0                 !
 ! D8    D(8,1,6,7)              0.0            -DE/DX =    0.0                 !
 ! D9    D(1,2,3,4)              0.0            -DE/DX =    0.0                 !
 ! D10   D(9,2,3,4)            180.0            -DE/DX =    0.0                 !
 ! D11   D(2,3,4,5)              0.0            -DE/DX =    0.0                 !
 ! D12   D(2,3,4,10)           180.0            -DE/DX =    0.0                 !
 ! D13   D(3,4,5,6)              0.0            -DE/DX =    0.0                 !
 ! D14   D(3,4,5,11)           180.0            -DE/DX =    0.0                 !
 ! D15   D(10,4,5,6)           180.0            -DE/DX =    0.0                 !
 ! D16   D(10,4,5,11)            0.0            -DE/DX =    0.0                 !
 ! D17   D(4,5,6,1)              0.0            -DE/DX =    0.0                 !
 ! D18   D(4,5,6,7)            180.0            -DE/DX =    0.0                 !
 ! D19   D(11,5,6,1)           180.0            -DE/DX =    0.0                 !
 ! D20   D(11,5,6,7)             0.0            -DE/DX =    0.0                 !
 --------------------------------------------------------------------------------
 GradGradGradGradGradGradGradGradGradGradGradGradGradGradGradGradGradGrad


 ----------------------------------------------------------------------

 Electric dipole moment (input orientation):
 (Debye = 10**-18 statcoulomb cm , SI units = C m)
                  (au)            (Debye)         (10**-30 SI)
   Tot        0.392496D+00      0.997627D+00      0.332772D+01
   x          0.334395D+00      0.849946D+00      0.283512D+01
   y          0.205508D+00      0.522350D+00      0.174237D+01
   z          0.000000D+00      0.000000D+00      0.000000D+00

 Dipole polarizability, Alpha (input orientation).
 (esu units = cm**3 , SI units = C**2 m**2 J**-1)
 Alpha(0;0):
               (au)            (10**-24 esu)      (10**-40 SI)
   iso        0.751206D+02      0.111317D+02      0.123857D+02
   aniso      0.478295D+02      0.708760D+01      0.788602D+01
   xx         0.941485D+02      0.139514D+02      0.155230D+02
   yx         0.764882D+01      0.113344D+01      0.126112D+01
   yy         0.864034D+02      0.128037D+02      0.142460D+02
   zx         0.000000D+00      0.000000D+00      0.000000D+00
   zy         0.000000D+00      0.000000D+00      0.000000D+00
   zz         0.448100D+02      0.664015D+01      0.738817D+01

 ----------------------------------------------------------------------

 Dipole orientation:
     6         -1.82859509          2.97541236         -4.95875984
     6         -1.83211539          2.98114044         -2.31958601
     6         -0.62604451          1.01867306         -1.12408894
     6          0.58002640         -0.94379436         -2.31958602
     6          0.57650599         -0.93806609         -4.95875970
     6         -0.62604449          1.01867304         -6.23441170
    17         -0.62604450          1.01867306         -9.53118093
     1         -2.74640638          4.46883596         -6.01467291
     1         -2.75721601          4.48642494         -1.28524278
     1          1.50512701         -2.44907882         -1.28524266
     1          1.49431719         -2.43148955         -6.01467273

 Electric dipole moment (dipole orientation):
 (Debye = 10**-18 statcoulomb cm , SI units = C m)
                  (au)            (Debye)         (10**-30 SI)
   Tot        0.392496D+00      0.997627D+00      0.332772D+01
   x          0.000000D+00      0.000000D+00      0.000000D+00
   y          0.000000D+00      0.000000D+00      0.000000D+00
   z          0.392496D+00      0.997627D+00      0.332772D+01

 Dipole polarizability, Alpha (dipole orientation).
 (esu units = cm**3 , SI units = C**2 m**2 J**-1)
 Alpha(0;0):
               (au)            (10**-24 esu)      (10**-40 SI)
   iso        0.751206D+02      0.111317D+02      0.123857D+02
   aniso      0.478295D+02      0.708760D+01      0.788602D+01
   xx         0.549241D+02      0.813891D+01      0.905576D+01
   yx        -0.164573D+02     -0.243872D+01     -0.271344D+01
   yy         0.715886D+02      0.106083D+02      0.118034D+02
   zx         0.000000D+00      0.000000D+00      0.000000D+00
   zy         0.000000D+00      0.000000D+00      0.000000D+00
   zz         0.988492D+02      0.146479D+02      0.162980D+02

 ----------------------------------------------------------------------
 1\1\GINC-SH02-01N07\Freq\UM062X\6-311++G(d,p)\C6H4Cl1(2)\JLAPIER\10-De
 c-2025\0\\#N Geom=AllCheck Guess=TCheck SCRF=Check GenChk UM062X/6-311
 ++G(d,p) Freq\\Neutral Radical (removed 4) 1_\\0,2\C,-3.2032695341,0.2
 005793082,0.\C,-2.0152811988,0.9348556968,0.\C,-0.8380753287,0.2276032
 766,0.\C,-0.7388307379,-1.1421303599,0.\C,-1.9305447918,-1.870344266,0
 .\C,-3.1420249784,-1.1883319099,0.\Cl,-4.6283480042,-2.1017793998,0.\H
 ,-4.1650046249,0.6982994813,0.\H,-2.0384976881,2.0180070802,0.\H,0.217
 0371558,-1.6521034228,0.\H,-1.9209102735,-2.9531954771,0.\\Version=ES6
 4L-G16RevB.01\State=2-A'\HF=-691.1127321\S2=0.762587\S2-1=0.\S2A=0.750
 07\RMSD=4.323e-09\RMSF=1.330e-04\ZeroPoint=0.078511\Thermal=0.0839432\
 Dipole=0.3343946,0.2055084,0.\DipoleDeriv=-0.1037981,-0.0920432,0.,-0.
 1064332,-0.0639166,0.,0.,0.,-0.137186,-0.046328,-0.0010869,0.,-0.05565
 76,0.0268755,0.,0.,0.,-0.0778828,-0.0849869,-0.0389846,0.,-0.0389846,-
 0.0455116,0.,0.,0.,-0.0978819,-0.0109281,-0.0735804,0.,-0.0190096,-0.0
 085243,0.,0.,0.,-0.0778828,-0.1520385,-0.0820094,0.,-0.0676193,-0.0156
 763,0.,0.,0.,-0.137186,0.8275785,0.5426596,0.,0.5426596,0.2780874,0.,0
 .,0.,-0.0033876,-0.5996186,-0.314229,0.,-0.314229,-0.2814339,0.,0.,0.,
 -0.0686059,0.0021447,0.0367344,0.,0.018259,0.0698964,0.,0.,0.,0.142530
 6,0.08461,0.0038262,0.,-0.0012621,-0.0165413,0.,0.,0.,0.1574759,0.0051
 303,0.038978,0.,0.0440663,0.0629385,0.,0.,0.,0.1574759,0.0782348,-0.02
 02649,0.,-0.0017896,-0.0061937,0.,0.,0.,0.1425306\Polar=94.1485226,7.6
 48821,86.4034073,0.,0.,44.8099657\Quadrupole=0.0071859,3.0382389,-3.04
 54248,-2.9933707,0.,0.\PG=CS [SG(C6H4Cl1)]\NImag=0\\0.73495709,-0.0412
 0542,0.67395280,0.,0.,0.12842257,-0.26963999,-0.04784357,0.,0.62457853
 ,-0.13647982,-0.18014520,0.,-0.03028692,0.74498028,0.,0.,-0.05973187,0
 .,0.,0.12641053,-0.06927107,-0.03305198,0.,-0.28401716,0.13363791,0.,0
 .44325845,0.03407805,0.07388587,0.,0.09575641,-0.17622325,0.,-0.142368
 88,0.58741954,0.,0.,0.01345856,0.,0.,-0.05334171,0.,0.,0.07499818,-0.0
 1386877,-0.03476115,0.,0.03634716,0.03786998,0.,-0.10577240,0.04339356
 ,0.,0.69600359,-0.03153368,-0.06411844,0.,0.08010619,-0.02338353,0.,0.
 00551207,-0.35446796,0.,-0.06644884,0.67355532,0.,0.,-0.00234018,0.,0.
 ,0.00504337,0.,0.,-0.05334172,0.,0.,0.12641053,0.03413364,0.08652943,0
 .,-0.08058223,-0.00098450,0.,0.04509058,-0.09095266,0.,-0.27268640,-0.
 04630134,0.,0.65318894,0.02809403,-0.02389958,0.,0.00224297,0.00259501
 ,0.,-0.02382262,-0.04047578,0.,-0.13493760,-0.17709896,0.,0.00019350,0
 .75572143,0.,0.,0.00592196,0.,0.,-0.00234018,0.,0.,0.01345857,0.,0.,-0
 .05973186,0.,0.,0.12842253,-0.11742761,-0.01517320,0.,0.04143134,-0.02
 324349,0.,-0.02722064,0.04044654,0.,-0.05982498,-0.04125526,0.,-0.2658
 5665,0.13791037,0.,0.56689391,0.06276158,-0.32799764,0.,-0.09252078,-0
 .02716961,0.,0.04044654,-0.06817635,0.,0.02802203,0.07408670,0.,0.0599
 7559,-0.17956874,0.,-0.05743080,0.62504752,0.,0.,-0.06468025,0.,0.,0.0
 0619752,0.,0.,-0.00714635,0.,0.,0.00619752,0.,0.,-0.06468024,0.,0.,0.1
 2661391,-0.01400427,-0.01028308,0.,0.00203286,-0.00090552,0.,-0.000779
 44,-0.00186394,0.,-0.00101717,0.00635753,0.,-0.03900202,-0.02580345,0.
 ,-0.13731330,-0.06008112,0.,0.19017802,-0.03845968,-0.02073160,0.,0.00
 481332,-0.00377750,0.,-0.00186394,0.00110797,0.,0.00063869,-0.00072746
 ,0.,0.00237314,0.00426615,0.,-0.06008112,-0.07647582,0.,0.09375293,0.0
 9524484,0.,0.,0.00458208,0.,0.,0.00457952,0.,0.,-0.00109194,0.,0.,0.00
 457952,0.,0.,0.00458208,0.,0.,-0.02310915,0.,0.,0.01157825,-0.28508543
 ,0.12223963,0.,-0.01646803,0.01266555,0.,-0.00400420,-0.00271055,0.,0.
 00093997,-0.00085272,0.,0.00135973,-0.00029429,0.,0.00129351,-0.002993
 85,0.,0.00112692,-0.00062278,0.,0.29972733,0.11842969,-0.11887904,0.,-
 0.01634470,0.01053884,0.,-0.00413070,-0.00009860,0.,-0.00032422,-0.000
 83731,0.,-0.00100318,-0.00545935,0.,0.02802354,-0.00951836,0.,0.000522
 81,0.00069921,0.,-0.12741172,0.12317998,0.,0.,-0.03638772,0.,0.,0.0041
 5227,0.,0.,0.00718439,0.,0.,-0.00108393,0.,0.,0.00577685,0.,0.,0.00286
 411,0.,0.,-0.00268461,0.,0.,0.02471375,0.00478744,-0.02783265,0.,-0.05
 409681,0.00862928,0.,0.00326178,0.02552364,0.,-0.00441654,0.00364772,0
 .,-0.00152784,-0.00042423,0.,-0.00309671,-0.00231198,0.,-0.00069075,-0
 .00130674,0.,0.00089694,0.00074277,0.,0.05464616,0.00279952,-0.0115631
 2,0.,0.00325201,-0.34298028,0.,0.00292802,-0.01133815,0.,0.00139169,0.
 00029345,0.,0.00015093,0.00054239,0.,-0.00241018,0.00110750,0.,-0.0002
 5623,-0.00063601,0.,0.00003614,0.00071797,0.,-0.00771467,0.36423280,0.
 ,0.,0.00533072,0.,0.,-0.03566739,0.,0.,-0.00068119,0.,0.,0.00578188,0.
 ,0.,-0.00035272,0.,0.,0.00743941,0.,0.,-0.00016557,0.,0.,-0.00416764,0
 .,0.,0.02339635,0.00000986,-0.00062760,0.,0.00136331,-0.00153461,0.,0.
 00310656,0.00300661,0.,-0.27925032,0.11724597,0.,-0.01831524,0.0144962
 9,0.,-0.00165330,-0.00314097,0.,-0.00127705,0.00004061,0.,-0.00007636,
 0.00002573,0.,0.00017531,-0.00013341,0.,0.29484886,-0.00120276,-0.0009
 9531,0.,0.00072142,-0.00548640,0.,0.02560223,-0.01118293,0.,0.12262324
 ,-0.11782675,0.,-0.01613588,0.01153957,0.,-0.00304277,-0.00033591,0.,-
 0.00100990,-0.00004971,0.,0.00006524,0.00005019,0.,0.00105117,-0.00028
 935,0.,-0.12932795,0.12403007,0.,0.,-0.00035272,0.,0.,0.00578188,0.,0.
 ,-0.00068119,0.,0.,-0.03566739,0.,0.,0.00533072,0.,0.,0.00743942,0.,0.
 ,-0.00016556,0.,0.,-0.00061844,0.,0.,-0.00029543,0.,0.,0.02339636,-0.0
 0459090,0.00200959,0.,-0.00094899,0.00063214,0.,-0.00365246,-0.0043087
 9,0.,0.00354586,-0.02647763,0.,-0.05580250,0.00234502,0.,0.00277443,0.
 02727377,0.,0.00074619,0.00071558,0.,0.00028962,0.00146999,0.,0.000061
 03,-0.00004383,0.,0.00106838,0.00065597,0.,0.05650933,0.00271848,0.000
 49128,0.,0.00010364,0.00105165,0.,-0.00288863,-0.00045035,0.,0.0025326
 3,-0.00947506,0.,0.00615496,-0.34816212,0.,-0.00374363,-0.01099928,0.,
 -0.00043002,0.00107994,0.,-0.00012066,-0.00039353,0.,-0.00000432,-0.00
 008720,0.,-0.00005066,0.00054653,0.,-0.00427179,0.36639815,0.,0.,0.005
 77685,0.,0.,-0.00108393,0.,0.,0.00718439,0.,0.,0.00415227,0.,0.,-0.036
 38770,0.,0.,0.00286411,0.,0.,-0.00268461,0.,0.,0.00025097,0.,0.,-0.000
 61844,0.,0.,-0.00416764,0.,0.,0.02471373\\0.00020524,0.00013573,0.,-0.
 00018159,-0.00009737,0.,0.00027552,0.00016934,0.,-0.00016894,-0.000118
 10,0.,0.00021381,0.00012184,0.,-0.00041241,-0.00025353,0.,0.00015923,0
 .00009787,0.,-0.00003060,-0.00001417,0.,-0.00002667,0.00000549,0.,-0.0
 0000713,-0.00002627,0.,-0.00002646,-0.00002084,0.\\\@


 HOW IS IT THAT THE SKY FEEDS THE STARS?

                           -- LUCRETIUS
 Job cpu time:       0 days  0 hours 34 minutes 22.2 seconds.
 Elapsed time:       0 days  0 hours  8 minutes 38.0 seconds.
 File lengths (MBytes):  RWF=    124 Int=      0 D2E=      0 Chk=     34 Scr=      1
 Normal termination of Gaussian 16 at Wed Dec 10 11:35:21 2025.
