 Entering Gaussian System, Link 0=g16
 Initial command:
 /share/software/user/restricted/gaussian/g16.B01/l1.exe "/home/users/jlapier/Chloroaromatics/Gau-29591.inp" -scrdir="/home/users/jlapier/Chloroaromatics/"
 Entering Link 1 = /share/software/user/restricted/gaussian/g16.B01/l1.exe PID=     29592.
  
 Copyright (c) 1988-2017, Gaussian, Inc.  All Rights Reserved.
  
 This is part of the Gaussian(R) 16 program.  It is based on
 the Gaussian(R) 09 system (copyright 2009, Gaussian, Inc.),
 the Gaussian(R) 03 system (copyright 2003, Gaussian, Inc.),
 the Gaussian(R) 98 system (copyright 1998, Gaussian, Inc.),
 the Gaussian(R) 94 system (copyright 1995, Gaussian, Inc.),
 the Gaussian 92(TM) system (copyright 1992, Gaussian, Inc.),
 the Gaussian 90(TM) system (copyright 1990, Gaussian, Inc.),
 the Gaussian 88(TM) system (copyright 1988, Gaussian, Inc.),
 the Gaussian 86(TM) system (copyright 1986, Carnegie Mellon
 University), and the Gaussian 82(TM) system (copyright 1983,
 Carnegie Mellon University). Gaussian is a federally registered
 trademark of Gaussian, Inc.
  
 This software contains proprietary and confidential information,
 including trade secrets, belonging to Gaussian, Inc.
  
 This software is provided under written license and may be
 used, copied, transmitted, or stored only in accord with that
 written license.
  
 The following legend is applicable only to US Government
 contracts under FAR:
  
                    RESTRICTED RIGHTS LEGEND
  
 Use, reproduction and disclosure by the US Government is
 subject to restrictions as set forth in subparagraphs (a)
 and (c) of the Commercial Computer Software - Restricted
 Rights clause in FAR 52.227-19.
  
 Gaussian, Inc.
 340 Quinnipiac St., Bldg. 40, Wallingford CT 06492
  
  
 ---------------------------------------------------------------
 Warning -- This program may not be used in any manner that
 competes with the business of Gaussian, Inc. or will provide
 assistance to any competitor of Gaussian, Inc.  The licensee
 of this program is prohibited from giving any competitor of
 Gaussian, Inc. access to this program.  By using this program,
 the user acknowledges that Gaussian, Inc. is engaged in the
 business of creating and licensing software in the field of
 computational chemistry and represents and warrants to the
 licensee that it is not a competitor of Gaussian, Inc. and that
 it will not use this program in any manner prohibited above.
 ---------------------------------------------------------------
  

 Cite this work as:
 Gaussian 16, Revision B.01,
 M. J. Frisch, G. W. Trucks, H. B. Schlegel, G. E. Scuseria, 
 M. A. Robb, J. R. Cheeseman, G. Scalmani, V. Barone, 
 G. A. Petersson, H. Nakatsuji, X. Li, M. Caricato, A. V. Marenich, 
 J. Bloino, B. G. Janesko, R. Gomperts, B. Mennucci, H. P. Hratchian, 
 J. V. Ortiz, A. F. Izmaylov, J. L. Sonnenberg, D. Williams-Young, 
 F. Ding, F. Lipparini, F. Egidi, J. Goings, B. Peng, A. Petrone, 
 T. Henderson, D. Ranasinghe, V. G. Zakrzewski, J. Gao, N. Rega, 
 G. Zheng, W. Liang, M. Hada, M. Ehara, K. Toyota, R. Fukuda, 
 J. Hasegawa, M. Ishida, T. Nakajima, Y. Honda, O. Kitao, H. Nakai, 
 T. Vreven, K. Throssell, J. A. Montgomery, Jr., J. E. Peralta, 
 F. Ogliaro, M. J. Bearpark, J. J. Heyd, E. N. Brothers, K. N. Kudin, 
 V. N. Staroverov, T. A. Keith, R. Kobayashi, J. Normand, 
 K. Raghavachari, A. P. Rendell, J. C. Burant, S. S. Iyengar, 
 J. Tomasi, M. Cossi, J. M. Millam, M. Klene, C. Adamo, R. Cammi, 
 J. W. Ochterski, R. L. Martin, K. Morokuma, O. Farkas, 
 J. B. Foresman, and D. J. Fox, Gaussian, Inc., Wallingford CT, 2016.
 
 ******************************************
 Gaussian 16:  ES64L-G16RevB.01 20-Dec-2017
                 9-Dec-2025 
 ******************************************
 %mem=8GB
 %nprocshare=4
 Will use up to    4 processors via shared memory.
 %oldchk=geometry_chks/14ClBzAnionRadical.chk
 %chk=frequency_chks/14ClBzAnionRadical_Freq.chk
 Copying data from "geometry_chks/14ClBzAnionRadical.chk" to current chk file "frequency_chks/14ClBzAnionRadical_Freq.chk"
 IOpt=  2 FromEx=T IUOpen= 4 IOptOp= 5 NList=   0 IFRang= 0 IUIn= 4 IUOut= 2.
 -------------------------------------------------------
 # opt freq 6-311++g(d,p) guess=read geom=allcheck m062x
 -------------------------------------------------------
 1/18=20,19=15,26=3,29=7,38=1/1,3;
 2/9=110,12=2,40=1/2;
 3/5=4,6=6,7=1111,11=2,14=-4,25=1,30=1,71=1,74=-55,116=-2/1,2,3;
 4/5=1/1;
 5/5=2,38=6/2;
 6/7=2,8=2,9=2,10=2,28=1/1;
 7//1,2,3,16;
 1/18=20,19=15,26=3/3(2);
 2/9=110/2;
 99//99;
 2/9=110/2;
 3/5=4,6=6,7=1111,11=2,14=-2,25=1,30=1,71=1,74=-55/1,2,3;
 4/5=5,16=3,69=1/1;
 5/5=2,38=5/2;
 7//1,2,3,16;
 1/18=20,19=15,26=3/3(-5);
 2/9=110/2;
 6/7=2,8=2,9=2,10=2,19=2,28=1/1;
 99/9=1/99;
 Structure from the checkpoint file:  "frequency_chks/14ClBzAnionRadical_Freq.chk"
 -----------------------------------
 2-Chloro-Benzene Anion Radical (14)
 -----------------------------------
 Charge = -1 Multiplicity = 2
 Redundant internal coordinates found in file.  (old form).
 C,0,-3.2034004007,0.2036474073,0.
 C,0,-2.0179267865,0.9321944154,0.
 C,0,-0.7987026762,0.2517649654,0.
 C,0,-0.7423675208,-1.1433412668,0.
 C,0,-1.9278376666,-1.871881618,0.
 C,0,-3.1470611129,-1.1914600947,0.
 Cl,0,-4.683389753,-2.1356503132,0.
 H,0,-4.1792886828,0.7079985093,0.
 H,0,-2.0270780452,2.0304055679,0.
 Cl,0,0.7376300308,1.1959479421,0.
 H,0,0.2334114805,-1.647639335,0.
 H,0,-1.9186888664,-2.9698161796,0.
 Recover connectivity data from disk.

 GradGradGradGradGradGradGradGradGradGradGradGradGradGradGradGradGradGrad
 Berny optimization.
 Initialization pass.
                           ----------------------------
                           !    Initial Parameters    !
                           ! (Angstroms and Degrees)  !
 --------------------------                            --------------------------
 ! Name  Definition              Value          Derivative Info.                !
 --------------------------------------------------------------------------------
 ! R1    R(1,2)                  1.3914         estimate D2E/DX2                !
 ! R2    R(1,6)                  1.3962         estimate D2E/DX2                !
 ! R3    R(1,8)                  1.0985         estimate D2E/DX2                !
 ! R4    R(2,3)                  1.3962         estimate D2E/DX2                !
 ! R5    R(2,9)                  1.0982         estimate D2E/DX2                !
 ! R6    R(3,4)                  1.3962         estimate D2E/DX2                !
 ! R7    R(3,10)                 1.8033         estimate D2E/DX2                !
 ! R8    R(4,5)                  1.3914         estimate D2E/DX2                !
 ! R9    R(4,11)                 1.0984         estimate D2E/DX2                !
 ! R10   R(5,6)                  1.3962         estimate D2E/DX2                !
 ! R11   R(5,12)                 1.098          estimate D2E/DX2                !
 ! R12   R(6,7)                  1.8033         estimate D2E/DX2                !
 ! A1    A(2,1,6)              119.2608         estimate D2E/DX2                !
 ! A2    A(2,1,8)              121.0962         estimate D2E/DX2                !
 ! A3    A(6,1,8)              119.643          estimate D2E/DX2                !
 ! A4    A(1,2,3)              119.2615         estimate D2E/DX2                !
 ! A5    A(1,2,9)              121.0959         estimate D2E/DX2                !
 ! A6    A(3,2,9)              119.6426         estimate D2E/DX2                !
 ! A7    A(2,3,4)              121.4776         estimate D2E/DX2                !
 ! A8    A(2,3,10)             119.2612         estimate D2E/DX2                !
 ! A9    A(4,3,10)             119.2612         estimate D2E/DX2                !
 ! A10   A(3,4,5)              119.2608         estimate D2E/DX2                !
 ! A11   A(3,4,11)             119.643          estimate D2E/DX2                !
 ! A12   A(5,4,11)             121.0962         estimate D2E/DX2                !
 ! A13   A(4,5,6)              119.2619         estimate D2E/DX2                !
 ! A14   A(4,5,12)             121.0957         estimate D2E/DX2                !
 ! A15   A(6,5,12)             119.6423         estimate D2E/DX2                !
 ! A16   A(1,6,5)              121.4775         estimate D2E/DX2                !
 ! A17   A(1,6,7)              119.2613         estimate D2E/DX2                !
 ! A18   A(5,6,7)              119.2612         estimate D2E/DX2                !
 ! D1    D(6,1,2,3)              0.0            estimate D2E/DX2                !
 ! D2    D(6,1,2,9)            180.0            estimate D2E/DX2                !
 ! D3    D(8,1,2,3)            180.0            estimate D2E/DX2                !
 ! D4    D(8,1,2,9)              0.0            estimate D2E/DX2                !
 ! D5    D(2,1,6,5)              0.0            estimate D2E/DX2                !
 ! D6    D(2,1,6,7)            180.0            estimate D2E/DX2                !
 ! D7    D(8,1,6,5)            180.0            estimate D2E/DX2                !
 ! D8    D(8,1,6,7)              0.0            estimate D2E/DX2                !
 ! D9    D(1,2,3,4)              0.0            estimate D2E/DX2                !
 ! D10   D(1,2,3,10)           180.0            estimate D2E/DX2                !
 ! D11   D(9,2,3,4)            180.0            estimate D2E/DX2                !
 ! D12   D(9,2,3,10)             0.0            estimate D2E/DX2                !
 ! D13   D(2,3,4,5)              0.0            estimate D2E/DX2                !
 ! D14   D(2,3,4,11)           180.0            estimate D2E/DX2                !
 ! D15   D(10,3,4,5)           180.0            estimate D2E/DX2                !
 ! D16   D(10,3,4,11)            0.0            estimate D2E/DX2                !
 ! D17   D(3,4,5,6)              0.0            estimate D2E/DX2                !
 ! D18   D(3,4,5,12)           180.0            estimate D2E/DX2                !
 ! D19   D(11,4,5,6)           180.0            estimate D2E/DX2                !
 ! D20   D(11,4,5,12)            0.0            estimate D2E/DX2                !
 ! D21   D(4,5,6,1)              0.0            estimate D2E/DX2                !
 ! D22   D(4,5,6,7)            180.0            estimate D2E/DX2                !
 ! D23   D(12,5,6,1)           180.0            estimate D2E/DX2                !
 ! D24   D(12,5,6,7)             0.0            estimate D2E/DX2                !
 --------------------------------------------------------------------------------
 Trust Radius=3.00D-01 FncErr=1.00D-07 GrdErr=1.00D-06 EigMax=2.50D+02 EigMin=1.00D-04
 Number of steps in this run=     64 maximum allowed number of steps=    100.
 GradGradGradGradGradGradGradGradGradGradGradGradGradGradGradGradGradGrad

                          Input orientation:                          
 ---------------------------------------------------------------------
 Center     Atomic      Atomic             Coordinates (Angstroms)
 Number     Number       Type             X           Y           Z
 ---------------------------------------------------------------------
      1          6           0       -3.203400    0.203647   -0.000000
      2          6           0       -2.017927    0.932194   -0.000000
      3          6           0       -0.798703    0.251765   -0.000000
      4          6           0       -0.742368   -1.143341    0.000000
      5          6           0       -1.927838   -1.871882    0.000000
      6          6           0       -3.147061   -1.191460   -0.000000
      7         17           0       -4.683390   -2.135650   -0.000000
      8          1           0       -4.179289    0.707999   -0.000000
      9          1           0       -2.027078    2.030406   -0.000000
     10         17           0        0.737630    1.195948   -0.000000
     11          1           0        0.233411   -1.647639    0.000000
     12          1           0       -1.918689   -2.969816    0.000000
 ---------------------------------------------------------------------
                    Distance matrix (angstroms):
                    1          2          3          4          5
     1  C    0.000000
     2  C    1.391448   0.000000
     3  C    2.405179   1.396242   0.000000
     4  C    2.805541   2.436165   1.396243   0.000000
     5  C    2.436161   2.805523   2.405165   1.391442   0.000000
     6  C    1.396245   2.405172   2.756390   2.405175   1.396238
     7  Cl   2.768155   4.064033   4.559665   4.064029   2.768148
     8  H    1.098512   2.172959   3.411233   3.903830   3.424151
     9  H    2.172736   1.098249   2.161589   3.423909   3.903549
    10  Cl   4.064035   2.768151   1.803275   2.768152   4.064025
    11  H    3.903708   3.424042   2.161711   1.098390   2.172851
    12  H    3.423646   3.903272   3.410712   2.172497   1.097973
                    6          7          8          9         10
     6  C    0.000000
     7  Cl   1.803275   0.000000
     8  H    2.161813   2.887985   0.000000
     9  H    3.410979   4.940851   2.526019   0.000000
    10  Cl   4.559665   6.362940   4.941071   2.887894   0.000000
    11  H    3.411113   4.940960   5.002095   4.317155   2.887945
    12  H    2.161353   2.887803   4.317017   5.001396   4.940609
                   11         12
    11  H    0.000000
    12  H    2.525804   0.000000
 Stoichiometry    C6H4Cl2(1-,2)
 Framework group  CS[SG(C6H4Cl2)]
 Deg. of freedom    21
 Full point group                 CS      NOp   2
 Largest Abelian subgroup         CS      NOp   2
 Largest concise Abelian subgroup C1      NOp   1
                         Standard orientation:                         
 ---------------------------------------------------------------------
 Center     Atomic      Atomic             Coordinates (Angstroms)
 Number     Number       Type             X           Y           Z
 ---------------------------------------------------------------------
      1          6           0        1.218081    0.695731   -0.000000
      2          6           0        1.218079   -0.695718   -0.000000
      3          6           0        0.000000   -1.378194    0.000000
      4          6           0       -1.218086   -0.695726    0.000000
      5          6           0       -1.218080    0.695716    0.000000
      6          6           0       -0.000007    1.378196    0.000000
      7         17           0       -0.000023    3.181471    0.000000
      8          1           0        2.158739    1.263085   -0.000000
      9          1           0        2.158514   -1.262934   -0.000000
     10         17           0        0.000007   -3.181469   -0.000000
     11          1           0       -2.158641   -1.263015    0.000000
     12          1           0       -2.158277    1.262789    0.000000
 ---------------------------------------------------------------------
 Rotational constants (GHZ):           5.6152130           0.6453225           0.5788041
 Standard basis: 6-311++G(d,p) (5D, 7F)
 There are   172 symmetry adapted cartesian basis functions of A'  symmetry.
 There are    56 symmetry adapted cartesian basis functions of A"  symmetry.
 There are   164 symmetry adapted basis functions of A'  symmetry.
 There are    56 symmetry adapted basis functions of A"  symmetry.
   220 basis functions,   358 primitive gaussians,   228 cartesian basis functions
    38 alpha electrons       37 beta electrons
       nuclear repulsion energy       443.0578518096 Hartrees.
 NAtoms=   12 NActive=   12 NUniq=   12 SFac= 1.00D+00 NAtFMM=   60 NAOKFM=F Big=F
 Integral buffers will be    131072 words long.
 Raffenetti 2 integral format.
 Two-electron integral symmetry is turned on.
 One-electron integrals computed using PRISM.
 NBasis=   220 RedAO= T EigKep=  1.15D-06  NBF=   164    56
 NBsUse=   220 1.00D-06 EigRej= -1.00D+00 NBFU=   164    56
 Initial guess from the checkpoint file:  "frequency_chks/14ClBzAnionRadical_Freq.chk"
 B after Tr=    -0.000000   -0.000000   -0.000000
         Rot=    1.000000    0.000000    0.000000    0.000000 Ang=   0.00 deg.
 Initial guess orbital symmetries:
 Alpha Orbitals:
       Occupied  (A') (A') (A') (A') (A') (A') (A') (A') (A') (A')
                 (A') (A') (A") (A') (A') (A") (A") (A') (A') (A")
                 (A") (A') (A') (A") (A") (A") (A') (A') (A') (A')
                 (A') (A') (A') (A') (A') (A') (A') (A')
       Virtual   (A') (A') (A') (A') (A') (A') (A') (A') (A') (A')
                 (A') (A') (A') (A') (A') (A') (A') (A') (A') (A')
                 (A') (A') (A') (A') (A') (A') (A') (A') (A') (A')
                 (A') (A') (A') (A') (A') (A') (A') (A') (A') (A')
                 (A') (A') (A') (A') (A') (A') (A') (A') (A') (A')
                 (A') (A') (A') (A') (A') (A') (A') (A') (A') (A')
                 (A') (A') (A') (A') (A') (A') (A') (A') (A') (A')
                 (A') (A') (A') (A') (A') (A') (A') (A') (A') (A')
                 (A') (A') (A') (A') (A') (A') (A') (A') (A') (A')
                 (A') (A') (A') (A') (A') (A') (A') (A') (A') (A')
                 (A') (A') (A') (A') (A') (A') (A') (A') (A') (A')
                 (A') (A') (A') (A') (A') (A') (A') (A') (A') (A')
                 (A') (A') (A') (A') (A') (A') (A') (A') (A') (A')
                 (A') (A') (A') (A') (A") (A") (A") (A") (A") (A")
                 (A") (A") (A") (A") (A") (A") (A") (A") (A") (A")
                 (A") (A") (A") (A") (A") (A") (A") (A") (A") (A")
                 (A") (A") (A") (A") (A") (A") (A") (A") (A") (A")
                 (A") (A") (A") (A") (A") (A") (A") (A") (A") (A")
                 (A") (A")
 Beta  Orbitals:
       Occupied  (A') (A') (A') (A') (A') (A') (A') (A') (A') (A')
                 (A') (A') (A") (A') (A") (A') (A") (A') (A') (A")
                 (A") (A") (A") (A') (A') (A") (A') (A') (A') (A')
                 (A') (A') (A') (A') (A') (A') (A')
       Virtual   (A') (A') (A') (A') (A') (A') (A') (A') (A') (A')
                 (A') (A') (A') (A') (A') (A') (A') (A') (A') (A')
                 (A') (A') (A') (A') (A') (A') (A') (A') (A') (A')
                 (A') (A') (A') (A') (A') (A') (A') (A') (A') (A')
                 (A') (A') (A') (A') (A') (A') (A') (A') (A') (A')
                 (A') (A') (A') (A') (A') (A') (A') (A') (A') (A')
                 (A') (A') (A') (A') (A') (A') (A') (A') (A') (A')
                 (A') (A') (A') (A') (A') (A') (A') (A') (A') (A')
                 (A') (A') (A') (A') (A') (A') (A') (A') (A') (A')
                 (A') (A') (A') (A') (A') (A') (A') (A') (A') (A')
                 (A') (A') (A') (A') (A') (A') (A') (A') (A') (A')
                 (A') (A') (A') (A') (A') (A') (A') (A') (A') (A')
                 (A') (A') (A') (A') (A') (A') (A') (A') (A') (A')
                 (A') (A') (A') (A') (A') (A") (A") (A") (A") (A")
                 (A") (A") (A") (A") (A") (A") (A") (A") (A") (A")
                 (A") (A") (A") (A") (A") (A") (A") (A") (A") (A")
                 (A") (A") (A") (A") (A") (A") (A") (A") (A") (A")
                 (A") (A") (A") (A") (A") (A") (A") (A") (A") (A")
                 (A") (A") (A")
 Initial guess <Sx>= 0.0000 <Sy>= 0.0000 <Sz>= 0.5000 <S**2>= 0.7500 S= 0.5000
 Keep R1 and R2 ints in memory in symmetry-blocked form, NReq=469802474.
 Requested convergence on RMS density matrix=1.00D-08 within 128 cycles.
 Requested convergence on MAX density matrix=1.00D-06.
 Requested convergence on             energy=1.00D-06.
 No special actions if energy rises.
 SCF Done:  E(UM062X) =  -1151.36770750     A.U. after   53 cycles
            NFock= 53  Conv=0.42D-08     -V/T= 2.0027
 <Sx>= 0.0000 <Sy>= 0.0000 <Sz>= 0.5000 <S**2>= 0.7516 S= 0.5008
 <L.S>=  0.00000000000    
 Annihilation of the first spin contaminant:
 S**2 before annihilation     0.7516,   after     0.7500

 **********************************************************************

            Population analysis using the SCF Density.

 **********************************************************************

 Orbital symmetries:
 Alpha Orbitals:
       Occupied  (A') (A') (A') (A') (A') (A') (A') (A') (A') (A')
                 (A') (A') (A") (A") (A') (A') (A') (A') (A') (A')
                 (A') (A') (A') (A') (A') (A') (A') (A') (A") (A')
                 (A') (A") (A') (A") (A') (A") (A") (A')
       Virtual   (A') (A') (A") (A") (A') (A') (A') (A') (A") (A')
                 (A") (A") (A') (A') (A') (A') (A') (A") (A') (A")
                 (A') (A") (A') (A') (A") (A') (A') (A") (A') (A')
                 (A') (A') (A") (A') (A') (A') (A') (A') (A') (A')
                 (A') (A') (A') (A') (A') (A') (A') (A') (A') (A')
                 (A') (A") (A") (A') (A') (A') (A") (A') (A') (A')
                 (A") (A") (A') (A") (A") (A') (A") (A') (A') (A')
                 (A') (A') (A') (A") (A') (A') (A') (A') (A') (A')
                 (A') (A') (A") (A") (A") (A') (A') (A') (A') (A')
                 (A") (A') (A") (A") (A') (A") (A') (A') (A') (A")
                 (A') (A") (A') (A') (A') (A') (A") (A') (A") (A")
                 (A') (A') (A') (A') (A") (A') (A") (A") (A") (A')
                 (A') (A') (A') (A') (A") (A') (A") (A') (A") (A')
                 (A") (A") (A') (A') (A') (A') (A') (A') (A') (A')
                 (A") (A') (A') (A') (A') (A') (A') (A") (A") (A")
                 (A") (A') (A') (A") (A') (A') (A') (A') (A') (A')
                 (A') (A') (A') (A') (A') (A') (A') (A') (A') (A')
                 (A') (A') (A') (A') (A") (A") (A') (A') (A') (A')
                 (A') (A')
 Beta  Orbitals:
       Occupied  (A') (A') (A') (A') (A') (A') (A') (A') (A') (A')
                 (A') (A') (A") (A") (A') (A') (A') (A') (A') (A')
                 (A') (A') (A') (A') (A') (A') (A') (A') (A") (A')
                 (A') (A") (A') (A") (A') (A") (A")
       Virtual   (A") (A") (A') (A') (A') (A') (A') (A') (A") (A')
                 (A") (A') (A") (A') (A') (A') (A") (A') (A') (A')
                 (A") (A") (A") (A') (A") (A') (A') (A') (A') (A')
                 (A") (A') (A') (A') (A') (A') (A') (A') (A') (A')
                 (A') (A') (A') (A') (A') (A') (A') (A') (A') (A')
                 (A') (A') (A") (A") (A') (A') (A') (A") (A') (A')
                 (A') (A") (A") (A') (A") (A") (A') (A") (A') (A')
                 (A') (A') (A') (A') (A") (A') (A') (A') (A') (A')
                 (A') (A') (A") (A") (A') (A") (A') (A') (A') (A')
                 (A') (A") (A') (A") (A") (A') (A") (A') (A') (A')
                 (A") (A") (A') (A') (A') (A') (A') (A") (A') (A")
                 (A") (A') (A') (A') (A') (A") (A") (A') (A") (A")
                 (A') (A') (A') (A') (A') (A") (A') (A") (A') (A")
                 (A') (A") (A") (A') (A') (A') (A') (A') (A') (A')
                 (A') (A") (A') (A') (A') (A') (A') (A') (A") (A")
                 (A") (A") (A') (A') (A") (A') (A') (A') (A') (A')
                 (A') (A') (A') (A') (A') (A') (A') (A') (A') (A')
                 (A') (A') (A') (A') (A') (A") (A") (A') (A') (A')
                 (A') (A') (A')
 The electronic state is 2-A'.
 Alpha  occ. eigenvalues -- -102.57491-102.57491 -10.51401 -10.51399 -10.46347
 Alpha  occ. eigenvalues --  -10.46343 -10.46267 -10.46266  -9.71651  -9.71650
 Alpha  occ. eigenvalues --   -7.44167  -7.44167  -7.43505  -7.43504  -7.43501
 Alpha  occ. eigenvalues --   -7.43501  -0.90140  -0.86138  -0.81322  -0.76164
 Alpha  occ. eigenvalues --   -0.71317  -0.61059  -0.57551  -0.48942  -0.45054
 Alpha  occ. eigenvalues --   -0.43365  -0.40374  -0.39125  -0.37611  -0.32972
 Alpha  occ. eigenvalues --   -0.32936  -0.32448  -0.28088  -0.27811  -0.27689
 Alpha  occ. eigenvalues --   -0.22257  -0.19568   0.04207
 Alpha virt. eigenvalues --    0.08733   0.10441   0.10464   0.10575   0.11898
 Alpha virt. eigenvalues --    0.11979   0.13469   0.15650   0.15938   0.16518
 Alpha virt. eigenvalues --    0.17146   0.17534   0.17683   0.17853   0.19186
 Alpha virt. eigenvalues --    0.19708   0.20009   0.21330   0.21352   0.21666
 Alpha virt. eigenvalues --    0.22628   0.22862   0.23198   0.23776   0.24061
 Alpha virt. eigenvalues --    0.24345   0.25192   0.25759   0.26335   0.27777
 Alpha virt. eigenvalues --    0.28685   0.29269   0.29984   0.30708   0.32175
 Alpha virt. eigenvalues --    0.33073   0.33077   0.34335   0.35203   0.36831
 Alpha virt. eigenvalues --    0.37149   0.38019   0.40599   0.40911   0.43331
 Alpha virt. eigenvalues --    0.44401   0.46355   0.47523   0.54951   0.56879
 Alpha virt. eigenvalues --    0.57346   0.57949   0.58047   0.59259   0.61734
 Alpha virt. eigenvalues --    0.61764   0.65736   0.66183   0.66519   0.67453
 Alpha virt. eigenvalues --    0.69154   0.72247   0.73395   0.73565   0.73956
 Alpha virt. eigenvalues --    0.74968   0.79950   0.80679   0.81930   0.85458
 Alpha virt. eigenvalues --    0.86008   0.88300   0.90868   0.96685   0.97361
 Alpha virt. eigenvalues --    0.97375   0.98478   1.00218   1.00868   1.01591
 Alpha virt. eigenvalues --    1.01989   1.02896   1.03561   1.03754   1.04305
 Alpha virt. eigenvalues --    1.06770   1.08262   1.11092   1.13011   1.13059
 Alpha virt. eigenvalues --    1.14642   1.15851   1.18680   1.21975   1.27404
 Alpha virt. eigenvalues --    1.27899   1.30796   1.36523   1.38602   1.41848
 Alpha virt. eigenvalues --    1.44027   1.44049   1.56554   1.60555   1.64946
 Alpha virt. eigenvalues --    1.65020   1.69544   1.73670   1.74928   1.75036
 Alpha virt. eigenvalues --    1.79279   1.82489   1.83941   1.84477   1.88835
 Alpha virt. eigenvalues --    2.03232   2.03479   2.04186   2.04307   2.04404
 Alpha virt. eigenvalues --    2.06227   2.06393   2.15561   2.17568   2.19238
 Alpha virt. eigenvalues --    2.19750   2.30634   2.37063   2.40472   2.40630
 Alpha virt. eigenvalues --    2.43479   2.44523   2.52588   2.54471   2.56374
 Alpha virt. eigenvalues --    2.58778   2.63621   2.65741   2.72511   2.75359
 Alpha virt. eigenvalues --    2.79930   2.82455   2.83641   2.84456   2.85662
 Alpha virt. eigenvalues --    2.87440   2.91312   2.93814   2.93837   3.02532
 Alpha virt. eigenvalues --    3.03928   3.05779   3.21610   3.22319   3.28668
 Alpha virt. eigenvalues --    3.37722   3.46752   3.53270   3.61873   3.69597
 Alpha virt. eigenvalues --    3.83707   3.97671   4.10364   4.24080   4.25440
 Alpha virt. eigenvalues --    4.93744  10.03797  10.07011  23.64595  24.03983
 Alpha virt. eigenvalues --   24.11407  24.17747  24.25115  24.32054  26.01880
 Alpha virt. eigenvalues --   26.03910  26.26465  26.39448  26.74174  26.86550
 Alpha virt. eigenvalues --  216.13480 216.17187
  Beta  occ. eigenvalues -- -102.57466-102.57465 -10.51385 -10.51383 -10.46317
  Beta  occ. eigenvalues --  -10.46313 -10.46238 -10.46237  -9.71642  -9.71641
  Beta  occ. eigenvalues --   -7.44132  -7.44132  -7.43480  -7.43479  -7.43478
  Beta  occ. eigenvalues --   -7.43478  -0.90060  -0.86046  -0.81223  -0.76083
  Beta  occ. eigenvalues --   -0.71223  -0.60986  -0.57484  -0.48786  -0.45009
  Beta  occ. eigenvalues --   -0.43328  -0.40378  -0.39002  -0.37612  -0.32923
  Beta  occ. eigenvalues --   -0.32894  -0.32448  -0.28069  -0.27776  -0.27638
  Beta  occ. eigenvalues --   -0.22321  -0.19519
  Beta virt. eigenvalues --    0.10363   0.10465   0.11889   0.13100   0.13137
  Beta virt. eigenvalues --    0.14635   0.15690   0.16563   0.16769   0.17613
  Beta virt. eigenvalues --    0.18606   0.18651   0.19717   0.20702   0.21366
  Beta virt. eigenvalues --    0.21490   0.22579   0.23729   0.24140   0.24464
  Beta virt. eigenvalues --    0.24912   0.25908   0.27076   0.27585   0.28025
  Beta virt. eigenvalues --    0.28777   0.28945   0.30703   0.31867   0.32499
  Beta virt. eigenvalues --    0.33752   0.34843   0.35122   0.35267   0.35520
  Beta virt. eigenvalues --    0.36792   0.38222   0.39438   0.39713   0.40074
  Beta virt. eigenvalues --    0.41631   0.41915   0.42113   0.44509   0.45244
  Beta virt. eigenvalues --    0.45650   0.47816   0.48201   0.52106   0.56714
  Beta virt. eigenvalues --    0.58715   0.58817   0.60412   0.60465   0.60658
  Beta virt. eigenvalues --    0.63460   0.64395   0.67326   0.67931   0.68451
  Beta virt. eigenvalues --    0.68983   0.70714   0.73380   0.73691   0.74487
  Beta virt. eigenvalues --    0.75024   0.75584   0.80617   0.80924   0.82810
  Beta virt. eigenvalues --    0.86945   0.87594   0.89756   0.92248   0.96956
  Beta virt. eigenvalues --    0.97283   0.98715   0.99228   1.00885   1.01820
  Beta virt. eigenvalues --    1.02390   1.03630   1.03634   1.03990   1.04002
  Beta virt. eigenvalues --    1.04371   1.07099   1.08581   1.11779   1.12881
  Beta virt. eigenvalues --    1.13206   1.14739   1.15868   1.18755   1.22038
  Beta virt. eigenvalues --    1.27474   1.27981   1.30979   1.36663   1.38803
  Beta virt. eigenvalues --    1.41960   1.44180   1.44454   1.56748   1.60713
  Beta virt. eigenvalues --    1.65395   1.65428   1.69654   1.73981   1.75032
  Beta virt. eigenvalues --    1.75084   1.79464   1.82734   1.84096   1.84555
  Beta virt. eigenvalues --    1.88938   2.03626   2.03933   2.04291   2.04419
  Beta virt. eigenvalues --    2.04541   2.06585   2.06603   2.15670   2.17909
  Beta virt. eigenvalues --    2.19345   2.19846   2.30867   2.37082   2.40833
  Beta virt. eigenvalues --    2.40873   2.43762   2.44582   2.52909   2.54699
  Beta virt. eigenvalues --    2.56701   2.59057   2.63938   2.66017   2.72693
  Beta virt. eigenvalues --    2.75452   2.80317   2.83061   2.84193   2.84610
  Beta virt. eigenvalues --    2.85903   2.88051   2.91920   2.94062   2.94132
  Beta virt. eigenvalues --    3.02724   3.04126   3.05992   3.21776   3.22468
  Beta virt. eigenvalues --    3.28849   3.37867   3.46884   3.53469   3.62042
  Beta virt. eigenvalues --    3.69791   3.84031   3.97841   4.10732   4.24380
  Beta virt. eigenvalues --    4.25712   4.93936  10.03820  10.07042  23.64629
  Beta virt. eigenvalues --   24.04027  24.11448  24.17789  24.25151  24.32093
  Beta virt. eigenvalues --   26.02045  26.04069  26.26631  26.39605  26.74346
  Beta virt. eigenvalues --   26.86747 216.13521 216.17229
          Condensed to atoms (all electrons):
               1          2          3          4          5          6
     1  C   30.520375   6.177503 -21.740443   6.661232   0.906862 -26.124514
     2  C    6.177503  30.525140 -26.142285   0.926162   6.641717 -21.730753
     3  C  -21.740443 -26.142285  80.949521 -26.157446 -21.711342  54.147576
     4  C    6.661232   0.926162 -26.157446  30.533933   6.169856 -21.744207
     5  C    0.906862   6.641717 -21.711342   6.169856  30.508865 -26.103628
     6  C  -26.124514 -21.730753  54.147576 -21.744207 -26.103628  80.883862
     7  Cl  -2.096870  -3.599797   7.565235  -3.601004  -2.088395   6.313247
     8  H    2.581138   4.426299 -12.205528   4.919533   4.452839 -12.798945
     9  H    4.425719   2.583569 -12.808879   4.463867   4.913752 -12.204013
    10  Cl  -3.600559  -2.096966   6.322299  -2.099910  -3.597788   7.564894
    11  H    4.917086   4.459197 -12.806400   2.586671   4.419242 -12.199473
    12  H    4.460202   4.918775 -12.209681   4.429573   2.575952 -12.800494
               7          8          9         10         11         12
     1  C   -2.096870   2.581138   4.425719  -3.600559   4.917086   4.460202
     2  C   -3.599797   4.426299   2.583569  -2.096966   4.459197   4.918775
     3  C    7.565235 -12.205528 -12.808879   6.322299 -12.806400 -12.209681
     4  C   -3.601004   4.919533   4.463867  -2.099910   2.586671   4.429573
     5  C   -2.088395   4.452839   4.913752  -3.597788   4.419242   2.575952
     6  C    6.313247 -12.798945 -12.204013   7.564894 -12.199473 -12.800494
     7  Cl  22.844245  -3.552079  -1.180065   0.305625  -1.179823  -3.552803
     8  H   -3.552079   7.585844   4.523934  -1.180159   1.269925   1.948970
     9  H   -1.180065   4.523934   7.588733  -3.554444   1.949050   1.270883
    10  Cl   0.305625  -1.180159  -3.554444  22.848588  -3.553711  -1.180699
    11  H   -1.179823   1.269925   1.949050  -3.553711   7.585840   4.523730
    12  H   -3.552803   1.948970   1.270883  -1.180699   4.523730   7.587026
          Atomic-Atomic Spin Densities.
               1          2          3          4          5          6
     1  C   16.288573   6.562633 -22.259110   8.995323   4.768489 -24.065074
     2  C    6.562633  16.291407 -24.081367   4.786726   8.977893 -22.250205
     3  C  -22.259110 -24.081367  66.928017 -24.096429 -22.231154  58.678165
     4  C    8.995323   4.786726 -24.096429  16.302370   6.555231 -22.262958
     5  C    4.768489   8.977893 -22.231154   6.555231  16.272735 -24.040748
     6  C  -24.065074 -22.250205  58.678165 -22.262958 -24.040748  66.861834
     7  Cl  -1.979719  -3.867861   7.675311  -3.869070  -1.972058   7.034392
     8  H    2.168435   4.424639 -12.218311   4.911205   4.470576 -12.714525
     9  H    4.424081   2.170704 -12.724401   4.481626   4.905447 -12.216795
    10  Cl  -3.868613  -1.980001   7.043397  -1.983328  -3.865876   7.674984
    11  H    4.908719   4.477001 -12.721965   2.173904   4.417618 -12.212262
    12  H    4.478087   4.910441 -12.222470   4.427965   2.162865 -12.715923
               7          8          9         10         11         12
     1  C   -1.979719   2.168435   4.424081  -3.868613   4.908719   4.478087
     2  C   -3.867861   4.424639   2.170704  -1.980001   4.477001   4.910441
     3  C    7.675311 -12.218311 -12.724401   7.043397 -12.721965 -12.222470
     4  C   -3.869070   4.911205   4.481626  -1.983328   2.173904   4.427965
     5  C   -1.972058   4.470576   4.905447  -3.865876   4.417618   2.162865
     6  C    7.034392 -12.714525 -12.216795   7.674984 -12.212262 -12.715923
     7  Cl   5.588018  -3.544229  -1.176627   0.324650  -1.176381  -3.544987
     8  H   -3.544229   7.126205   4.532349  -1.176720   1.268878   1.949076
     9  H   -1.176627   4.532349   7.129034  -3.546601   1.949156   1.269835
    10  Cl   0.324650  -1.176720  -3.546601   5.592363  -3.545877  -1.177258
    11  H   -1.176381   1.268878   1.949156  -3.545877   7.126127   4.532161
    12  H   -3.544987   1.949076   1.269835  -1.177258   4.532161   7.127196
 Mulliken charges and spin densities:
               1          2
     1  C   -1.087732   0.421824
     2  C   -1.088562   0.422012
     3  C    2.797372  -2.230316
     4  C   -1.088261   0.422564
     5  C   -1.087932   0.421018
     6  C    2.796447  -2.229115
     7  Cl   0.822485  -0.508561
     8  H   -0.971772   1.197578
     9  H   -0.972107   1.197808
    10  Cl   0.822830  -0.508879
    11  H   -0.971335   1.197080
    12  H   -0.971434   1.196988
 Sum of Mulliken charges =  -1.00000   1.00000
 Mulliken charges and spin densities with hydrogens summed into heavy atoms:
               1          2
     1  C   -2.059503   1.619402
     2  C   -2.060668   1.619820
     3  C    2.797372  -2.230316
     4  C   -2.059596   1.619644
     5  C   -2.059366   1.618006
     6  C    2.796447  -2.229115
     7  Cl   0.822485  -0.508561
    10  Cl   0.822830  -0.508879
 Electronic spatial extent (au):  <R**2>=           1788.6316
 Charge=             -1.0000 electrons
 Dipole moment (field-independent basis, Debye):
    X=             -0.0067    Y=              0.0011    Z=              0.0000  Tot=              0.0068
 Quadrupole moment (field-independent basis, Debye-Ang):
   XX=           -114.6477   YY=            -96.0416   ZZ=            -85.6289
   XY=             -0.0044   XZ=              0.0000   YZ=              0.0000
 Traceless Quadrupole moment (field-independent basis, Debye-Ang):
   XX=            -15.8750   YY=              2.7311   ZZ=             13.1439
   XY=             -0.0044   XZ=              0.0000   YZ=              0.0000
 Octapole moment (field-independent basis, Debye-Ang**2):
  XXX=             -0.1226  YYY=              0.0142  ZZZ=              0.0000  XYY=             -0.0335
  XXY=              0.0131  XXZ=              0.0000  XZZ=             -0.0190  YZZ=              0.0054
  YYZ=              0.0000  XYZ=             -0.0000
 Hexadecapole moment (field-independent basis, Debye-Ang**3):
 XXXX=          -1627.4748 YYYY=          -2217.5569 ZZZZ=           -306.7425 XXXY=             -0.0889
 XXXZ=              0.0000 YYYX=             -0.0593 YYYZ=              0.0000 ZZZX=              0.0000
 ZZZY=              0.0000 XXYY=           -644.2231 XXZZ=           -273.7533 YYZZ=           -435.2507
 XXYZ=              0.0000 YYXZ=              0.0000 ZZXY=             -0.0137
 N-N= 4.430578518096D+02 E-N=-3.617852569675D+03  KE= 1.148240537139D+03
 Symmetry A'   KE= 1.050039756405D+03
 Symmetry A"   KE= 9.820078073420D+01
 Symmetry A'   SP= 1.000000000000D+00
 Symmetry A"   SP=-1.551055562200D-14
                          Isotropic Fermi Contact Couplings
        Atom                 a.u.       MegaHertz       Gauss      10(-4) cm-1
     1  C(13)              0.02426      27.27019       9.73068       9.09636
     2  C(13)              0.02424      27.25385       9.72485       9.09091
     3  C(13)              0.01306      14.68585       5.24028       4.89867
     4  C(13)              0.02424      27.24781       9.72269       9.08889
     5  C(13)              0.02420      27.20391       9.70703       9.07425
     6  C(13)              0.01307      14.69045       5.24192       4.90021
     7  Cl(35)             0.00241       1.05465       0.37632       0.35179
     8  H(1)               0.00009       0.39480       0.14087       0.13169
     9  H(1)               0.00009       0.39957       0.14257       0.13328
    10  Cl(35)             0.00241       1.05681       0.37710       0.35251
    11  H(1)               0.00009       0.39782       0.14195       0.13270
    12  H(1)               0.00009       0.40497       0.14450       0.13508
 --------------------------------------------------------
       Center         ----  Spin Dipole Couplings  ----
                      3XX-RR        3YY-RR        3ZZ-RR
 --------------------------------------------------------
     1   Atom        0.006455     -0.003423     -0.003032
     2   Atom        0.006445     -0.003417     -0.003028
     3   Atom       -0.002540      0.002552     -0.000012
     4   Atom        0.006439     -0.003421     -0.003019
     5   Atom        0.006424     -0.003413     -0.003011
     6   Atom       -0.002539      0.002551     -0.000011
     7   Atom       -0.015232      0.024858     -0.009626
     8   Atom        0.005257     -0.001248     -0.004009
     9   Atom        0.005256     -0.001248     -0.004008
    10   Atom       -0.015237      0.024859     -0.009622
    11   Atom        0.005252     -0.001248     -0.004004
    12   Atom        0.005248     -0.001246     -0.004002
 --------------------------------------------------------
                        XY            XZ            YZ
 --------------------------------------------------------
     1   Atom        0.006074     -0.000000     -0.000000
     2   Atom       -0.006068     -0.000000     -0.000000
     3   Atom       -0.000003     -0.000000     -0.000000
     4   Atom        0.006061     -0.000000     -0.000000
     5   Atom       -0.006050     -0.000000     -0.000000
     6   Atom       -0.000006     -0.000000      0.000000
     7   Atom        0.000032      0.000000     -0.000000
     8   Atom        0.003866     -0.000000     -0.000000
     9   Atom       -0.003865     -0.000000     -0.000000
    10   Atom       -0.000011      0.000000      0.000000
    11   Atom        0.003862     -0.000000     -0.000000
    12   Atom       -0.003858      0.000000     -0.000000
 --------------------------------------------------------


 ---------------------------------------------------------------------------------
              Anisotropic Spin Dipole Couplings in Principal Axis System
 ---------------------------------------------------------------------------------

       Atom             a.u.   MegaHertz   Gauss  10(-4) cm-1        Axes

              Baa    -0.0063    -0.847    -0.302    -0.283 -0.4296  0.9030  0.0000
     1 C(13)  Bbb    -0.0030    -0.407    -0.145    -0.136  0.0000  0.0000  1.0000
              Bcc     0.0093     1.254     0.447     0.418  0.9030  0.4296 -0.0000
 
              Baa    -0.0063    -0.846    -0.302    -0.282  0.4297  0.9030 -0.0000
     2 C(13)  Bbb    -0.0030    -0.406    -0.145    -0.136  0.0000  0.0000  1.0000
              Bcc     0.0093     1.252     0.447     0.418  0.9030 -0.4297 -0.0000
 
              Baa    -0.0025    -0.341    -0.122    -0.114  1.0000  0.0007  0.0000
     3 C(13)  Bbb    -0.0000    -0.002    -0.001    -0.001  0.0000  0.0000  1.0000
              Bcc     0.0026     0.342     0.122     0.114 -0.0007  1.0000 -0.0000
 
              Baa    -0.0063    -0.846    -0.302    -0.282 -0.4295  0.9030 -0.0000
     4 C(13)  Bbb    -0.0030    -0.405    -0.145    -0.135  0.0000  0.0000  1.0000
              Bcc     0.0093     1.251     0.446     0.417  0.9030  0.4295 -0.0000
 
              Baa    -0.0063    -0.844    -0.301    -0.282  0.4296  0.9030 -0.0000
     5 C(13)  Bbb    -0.0030    -0.404    -0.144    -0.135  0.0000  0.0000  1.0000
              Bcc     0.0093     1.248     0.445     0.416  0.9030 -0.4296 -0.0000
 
              Baa    -0.0025    -0.341    -0.122    -0.114  1.0000  0.0011  0.0000
     6 C(13)  Bbb    -0.0000    -0.002    -0.001    -0.001  0.0000  0.0000  1.0000
              Bcc     0.0026     0.342     0.122     0.114 -0.0011  1.0000 -0.0000
 
              Baa    -0.0152    -0.797    -0.284    -0.266  1.0000 -0.0008  0.0000
     7 Cl(35) Bbb    -0.0096    -0.504    -0.180    -0.168  0.0000  0.0000  1.0000
              Bcc     0.0249     1.301     0.464     0.434  0.0008  1.0000 -0.0000
 
              Baa    -0.0040    -2.139    -0.763    -0.713  0.0000  0.0000  1.0000
     8 H(1)   Bbb    -0.0030    -1.626    -0.580    -0.542 -0.4221  0.9066  0.0000
              Bcc     0.0071     3.765     1.344     1.256  0.9066  0.4221 -0.0000
 
              Baa    -0.0040    -2.139    -0.763    -0.713  0.0000  0.0000  1.0000
     9 H(1)   Bbb    -0.0030    -1.626    -0.580    -0.542  0.4220  0.9066 -0.0000
              Bcc     0.0071     3.764     1.343     1.256  0.9066 -0.4220 -0.0000
 
              Baa    -0.0152    -0.797    -0.285    -0.266  1.0000  0.0003  0.0000
    10 Cl(35) Bbb    -0.0096    -0.504    -0.180    -0.168  0.0000  0.0000  1.0000
              Bcc     0.0249     1.301     0.464     0.434 -0.0003  1.0000 -0.0000
 
              Baa    -0.0040    -2.137    -0.762    -0.713  0.0000  0.0000  1.0000
    11 H(1)   Bbb    -0.0030    -1.625    -0.580    -0.542 -0.4220  0.9066 -0.0000
              Bcc     0.0070     3.761     1.342     1.255  0.9066  0.4220 -0.0000
 
              Baa    -0.0040    -2.135    -0.762    -0.712  0.0000  0.0000  1.0000
    12 H(1)   Bbb    -0.0030    -1.623    -0.579    -0.541  0.4219  0.9066 -0.0000
              Bcc     0.0070     3.758     1.341     1.254  0.9066 -0.4219  0.0000
 

 ---------------------------------------------------------------------------------

 Calling FoFJK, ICntrl=      2127 FMM=F ISym2X=1 I1Cent= 0 IOpClX= 1 NMat=1 NMatS=1 NMatT=0.
 ***** Axes restored to original set *****
 -------------------------------------------------------------------
 Center     Atomic                   Forces (Hartrees/Bohr)
 Number     Number              X              Y              Z
 -------------------------------------------------------------------
      1        6          -0.008317284   -0.006025526    0.000000000
      2        6           0.009128128    0.004547325    0.000000000
      3        6           0.002405411    0.001475095    0.000000000
      4        6           0.008260458    0.006063762   -0.000000000
      5        6          -0.009133856   -0.004394021   -0.000000000
      6        6          -0.002410043   -0.001462455   -0.000000000
      7       17           0.016759564    0.010297544    0.000000000
      8        1           0.008613271   -0.002295366    0.000000000
      9        1          -0.001844104   -0.008556276    0.000000000
     10       17          -0.016758776   -0.010299530    0.000000000
     11        1          -0.008547410    0.002262990   -0.000000000
     12        1           0.001844639    0.008386458   -0.000000000
 -------------------------------------------------------------------
 Cartesian Forces:  Max     0.016759564 RMS     0.006487113

 GradGradGradGradGradGradGradGradGradGradGradGradGradGradGradGradGradGrad
 Berny optimization.
 FormGI is forming the generalized inverse of G from B-inverse, IUseBI=4.
 Internal  Forces:  Max     0.019670711 RMS     0.005492449
 Search for a local minimum.
 Step number   1 out of a maximum of   64
 All quantities printed in internal units (Hartrees-Bohrs-Radians)
 Mixed Optimization -- RFO/linear search
 Second derivative matrix not updated -- first step.
 ITU=  0
     Eigenvalues ---    0.02138   0.02138   0.02138   0.02159   0.02160
     Eigenvalues ---    0.02171   0.02171   0.02180   0.02181   0.16000
     Eigenvalues ---    0.16000   0.16000   0.16000   0.22000   0.22994
     Eigenvalues ---    0.24000   0.25000   0.25000   0.25860   0.25860
     Eigenvalues ---    0.33847   0.33861   0.33876   0.33907   0.42209
     Eigenvalues ---    0.42482   0.46249   0.46249   0.46544   0.47068
 RFO step:  Lambda=-5.22203303D-03 EMin= 2.13845920D-02
 Linear search not attempted -- first point.
 Iteration  1 RMS(Cart)=  0.02416465 RMS(Int)=  0.00006787
 Iteration  2 RMS(Cart)=  0.00010401 RMS(Int)=  0.00000001
 Iteration  3 RMS(Cart)=  0.00000000 RMS(Int)=  0.00000000
 ClnCor:  largest displacement from symmetrization is 5.31D-12 for atom     9.
 Variable       Old X    -DE/DX   Delta X   Delta X   Delta X     New X
                                 (Linear)    (Quad)   (Total)
    R1        2.62946  -0.00432   0.00000  -0.00908  -0.00908   2.62038
    R2        2.63852  -0.01043   0.00000  -0.02231  -0.02231   2.61621
    R3        2.07589  -0.00871   0.00000  -0.02533  -0.02533   2.05056
    R4        2.63851  -0.01043   0.00000  -0.02230  -0.02230   2.61622
    R5        2.07539  -0.00854   0.00000  -0.02483  -0.02483   2.05056
    R6        2.63852  -0.01043   0.00000  -0.02230  -0.02230   2.61622
    R7        3.40770  -0.01967   0.00000  -0.07456  -0.07456   3.33314
    R8        2.62944  -0.00431   0.00000  -0.00905  -0.00905   2.62039
    R9        2.07566  -0.00863   0.00000  -0.02511  -0.02511   2.05055
   R10        2.63851  -0.01042   0.00000  -0.02228  -0.02228   2.61622
   R11        2.07487  -0.00837   0.00000  -0.02431  -0.02431   2.05055
   R12        3.40770  -0.01967   0.00000  -0.07456  -0.07456   3.33314
    A1        2.08149  -0.00179   0.00000  -0.00730  -0.00730   2.07420
    A2        2.11353  -0.00109   0.00000  -0.00838  -0.00838   2.10514
    A3        2.08816   0.00288   0.00000   0.01568   0.01568   2.10385
    A4        2.08151  -0.00180   0.00000  -0.00733  -0.00733   2.07417
    A5        2.11352  -0.00109   0.00000  -0.00836  -0.00836   2.10516
    A6        2.08816   0.00289   0.00000   0.01570   0.01570   2.10385
    A7        2.12018   0.00359   0.00000   0.01463   0.01463   2.13482
    A8        2.08150  -0.00179   0.00000  -0.00732  -0.00732   2.07418
    A9        2.08150  -0.00179   0.00000  -0.00732  -0.00732   2.07418
   A10        2.08149  -0.00179   0.00000  -0.00730  -0.00730   2.07420
   A11        2.08816   0.00288   0.00000   0.01567   0.01567   2.10383
   A12        2.11353  -0.00109   0.00000  -0.00837  -0.00837   2.10515
   A13        2.08151  -0.00180   0.00000  -0.00735  -0.00735   2.07416
   A14        2.11352  -0.00108   0.00000  -0.00835  -0.00835   2.10517
   A15        2.08815   0.00289   0.00000   0.01570   0.01570   2.10385
   A16        2.12018   0.00359   0.00000   0.01464   0.01464   2.13482
   A17        2.08150  -0.00179   0.00000  -0.00731  -0.00731   2.07420
   A18        2.08150  -0.00180   0.00000  -0.00733  -0.00733   2.07417
    D1        0.00000  -0.00000   0.00000  -0.00000   0.00000   0.00000
    D2        3.14159   0.00000   0.00000   0.00000   0.00000   3.14159
    D3        3.14159  -0.00000   0.00000  -0.00000   0.00000   3.14159
    D4       -0.00000   0.00000   0.00000  -0.00000   0.00000   0.00000
    D5       -0.00000  -0.00000   0.00000   0.00000   0.00000   0.00000
    D6        3.14159  -0.00000   0.00000  -0.00000   0.00000   3.14159
    D7        3.14159  -0.00000   0.00000   0.00000   0.00000   3.14159
    D8       -0.00000  -0.00000   0.00000  -0.00000   0.00000   0.00000
    D9        0.00000  -0.00000   0.00000  -0.00000  -0.00000   0.00000
   D10        3.14159   0.00000   0.00000   0.00000   0.00000   3.14159
   D11        3.14159   0.00000   0.00000  -0.00000   0.00000   3.14159
   D12        0.00000   0.00000   0.00000   0.00000   0.00000   0.00000
   D13        0.00000  -0.00000   0.00000   0.00000   0.00000   0.00000
   D14        3.14159  -0.00000   0.00000   0.00000   0.00000   3.14159
   D15        3.14159  -0.00000   0.00000  -0.00000   0.00000   3.14159
   D16       -0.00000  -0.00000   0.00000  -0.00000   0.00000   0.00000
   D17        0.00000  -0.00000   0.00000   0.00000  -0.00000   0.00000
   D18        3.14159  -0.00000   0.00000   0.00000   0.00000   3.14159
   D19        3.14159  -0.00000   0.00000  -0.00000   0.00000   3.14159
   D20        0.00000  -0.00000   0.00000   0.00000   0.00000   0.00000
   D21       -0.00000   0.00000   0.00000  -0.00000   0.00000   0.00000
   D22        3.14159   0.00000   0.00000   0.00000   0.00000   3.14159
   D23        3.14159   0.00000   0.00000  -0.00000   0.00000   3.14159
   D24        0.00000   0.00000   0.00000   0.00000   0.00000   0.00000
         Item               Value     Threshold  Converged?
 Maximum Force            0.019671     0.000450     NO 
 RMS     Force            0.005492     0.000300     NO 
 Maximum Displacement     0.090945     0.001800     NO 
 RMS     Displacement     0.024164     0.001200     NO 
 Predicted change in Energy=-2.657681D-03
 GradGradGradGradGradGradGradGradGradGradGradGradGradGradGradGradGradGrad

                          Input orientation:                          
 ---------------------------------------------------------------------
 Center     Atomic      Atomic             Coordinates (Angstroms)
 Number     Number       Type             X           Y           Z
 ---------------------------------------------------------------------
      1          6           0       -3.198539    0.200349   -0.000000
      2          6           0       -2.017166    0.926395   -0.000000
      3          6           0       -0.813218    0.242884   -0.000000
      4          6           0       -0.747243   -1.139985    0.000000
      5          6           0       -1.928619   -1.866040    0.000000
      6          6           0       -3.132566   -1.182519   -0.000000
      7         17           0       -4.635279   -2.106054   -0.000000
      8          1           0       -4.158314    0.706599   -0.000000
      9          1           0       -2.035295    2.011354   -0.000000
     10         17           0        0.689504    1.166403   -0.000000
     11          1           0        0.212537   -1.646221    0.000000
     12          1           0       -1.910503   -2.950996    0.000000
 ---------------------------------------------------------------------
                    Distance matrix (angstroms):
                    1          2          3          4          5
     1  C    0.000000
     2  C    1.386645   0.000000
     3  C    2.385700   1.384441   0.000000
     4  C    2.793805   2.425413   1.384442   0.000000
     5  C    2.425419   2.793838   2.385725   1.386653   0.000000
     6  C    1.384440   2.385714   2.722343   2.385702   1.384446
     7  Cl   2.717299   4.006277   4.486163   4.006259   2.717280
     8  H    1.085108   2.152400   3.377085   3.878825   3.404411
     9  H    2.152412   1.085111   2.149641   3.404411   3.878861
    10  Cl   4.006262   2.717290   1.763820   2.717290   4.006280
    11  H    3.878821   3.404398   2.149626   1.085105   2.152410
    12  H    3.404410   3.878857   3.377115   2.152425   1.085107
                    6          7          8          9         10
     6  C    0.000000
     7  Cl   1.763821   0.000000
     8  H    2.149634   2.852807   0.000000
     9  H    3.377103   4.869596   2.491906   0.000000
    10  Cl   4.486162   6.249983   4.869575   2.852801   0.000000
    11  H    3.377089   4.869575   4.963880   4.293088   2.852779
    12  H    2.149640   2.852776   4.293094   4.963918   4.869600
                   11         12
    11  H    0.000000
    12  H    2.491934   0.000000
 Stoichiometry    C6H4Cl2(1-,2)
 Framework group  CS[SG(C6H4Cl2)]
 Deg. of freedom    21
 Full point group                 CS      NOp   2
 Largest Abelian subgroup         CS      NOp   2
 Largest concise Abelian subgroup C1      NOp   1
                         Standard orientation:                         
 ---------------------------------------------------------------------
 Center     Atomic      Atomic             Coordinates (Angstroms)
 Number     Number       Type             X           Y           Z
 ---------------------------------------------------------------------
      1          6           0        1.212704    0.693320    0.000000
      2          6           0        1.212717   -0.693324    0.000000
      3          6           0        0.000011   -1.361172    0.000000
      4          6           0       -1.212696   -0.693323    0.000000
      5          6           0       -1.212715    0.693330    0.000000
      6          6           0       -0.000000    1.361171    0.000000
      7         17           0       -0.000018    3.124991    0.000000
      8          1           0        2.146544    1.245953    0.000000
      9          1           0        2.146562   -1.245954    0.000000
     10         17           0        0.000009   -3.124992    0.000000
     11          1           0       -2.146526   -1.245966    0.000000
     12          1           0       -2.146550    1.245968    0.000000
 ---------------------------------------------------------------------
 Rotational constants (GHZ):           5.6678081           0.6678015           0.5974122
 Standard basis: 6-311++G(d,p) (5D, 7F)
 There are   172 symmetry adapted cartesian basis functions of A'  symmetry.
 There are    56 symmetry adapted cartesian basis functions of A"  symmetry.
 There are   164 symmetry adapted basis functions of A'  symmetry.
 There are    56 symmetry adapted basis functions of A"  symmetry.
   220 basis functions,   358 primitive gaussians,   228 cartesian basis functions
    38 alpha electrons       37 beta electrons
       nuclear repulsion energy       449.0526001551 Hartrees.
 NAtoms=   12 NActive=   12 NUniq=   12 SFac= 1.00D+00 NAtFMM=   60 NAOKFM=F Big=F
 Integral buffers will be    131072 words long.
 Raffenetti 2 integral format.
 Two-electron integral symmetry is turned on.
 One-electron integrals computed using PRISM.
 NBasis=   220 RedAO= T EigKep=  1.05D-06  NBF=   164    56
 NBsUse=   220 1.00D-06 EigRej= -1.00D+00 NBFU=   164    56
 Initial guess from the checkpoint file:  "frequency_chks/14ClBzAnionRadical_Freq.chk"
 B after Tr=    -0.000000    0.000000   -0.000000
         Rot=    1.000000    0.000000   -0.000000    0.000000 Ang=   0.00 deg.
 Initial guess orbital symmetries:
 Alpha Orbitals:
       Occupied  (A') (A') (A') (A') (A') (A') (A') (A') (A') (A')
                 (A') (A') (A") (A") (A') (A') (A') (A') (A') (A')
                 (A') (A') (A') (A') (A') (A') (A') (A') (A") (A')
                 (A') (A") (A') (A") (A') (A") (A") (A')
       Virtual   (A') (A') (A") (A") (A') (A') (A') (A') (A") (A')
                 (A") (A") (A') (A') (A') (A') (A') (A") (A') (A")
                 (A') (A") (A') (A') (A") (A') (A') (A") (A') (A')
                 (A') (A') (A") (A') (A') (A') (A') (A') (A') (A')
                 (A') (A') (A') (A') (A') (A') (A') (A') (A') (A')
                 (A') (A") (A") (A') (A') (A') (A") (A') (A') (A')
                 (A") (A") (A') (A") (A") (A') (A") (A') (A') (A')
                 (A') (A') (A') (A") (A') (A') (A') (A') (A') (A')
                 (A') (A') (A") (A") (A") (A') (A') (A') (A') (A')
                 (A") (A') (A") (A") (A') (A") (A') (A') (A') (A")
                 (A') (A") (A') (A') (A') (A') (A") (A') (A") (A")
                 (A') (A') (A') (A') (A") (A') (A") (A") (A") (A')
                 (A') (A') (A') (A') (A") (A') (A") (A') (A") (A')
                 (A") (A") (A') (A') (A') (A') (A') (A') (A') (A')
                 (A") (A') (A') (A') (A') (A') (A') (A") (A") (A")
                 (A") (A') (A') (A") (A') (A') (A') (A') (A') (A')
                 (A') (A') (A') (A') (A') (A') (A') (A') (A') (A')
                 (A') (A') (A') (A') (A") (A") (A') (A') (A') (A')
                 (A') (A')
 Beta  Orbitals:
       Occupied  (A') (A') (A') (A') (A') (A') (A') (A') (A') (A')
                 (A') (A') (A") (A") (A') (A') (A') (A') (A') (A')
                 (A') (A') (A') (A') (A') (A') (A') (A') (A") (A')
                 (A') (A") (A') (A") (A') (A") (A")
       Virtual   (A") (A") (A') (A') (A') (A') (A') (A') (A") (A')
                 (A") (A') (A") (A') (A') (A') (A") (A') (A') (A')
                 (A") (A") (A") (A') (A") (A') (A') (A') (A') (A')
                 (A") (A') (A') (A') (A') (A') (A') (A') (A') (A')
                 (A') (A') (A') (A') (A') (A') (A') (A') (A') (A')
                 (A') (A') (A") (A") (A') (A') (A') (A") (A') (A')
                 (A') (A") (A") (A') (A") (A") (A') (A") (A') (A')
                 (A') (A') (A') (A') (A") (A') (A') (A') (A') (A')
                 (A') (A') (A") (A") (A') (A") (A') (A') (A') (A')
                 (A') (A") (A') (A") (A") (A') (A") (A') (A') (A')
                 (A") (A") (A') (A') (A') (A') (A') (A") (A') (A")
                 (A") (A') (A') (A') (A') (A") (A") (A') (A") (A")
                 (A') (A') (A') (A') (A') (A") (A') (A") (A') (A")
                 (A') (A") (A") (A') (A') (A') (A') (A') (A') (A')
                 (A') (A") (A') (A') (A') (A') (A') (A') (A") (A")
                 (A") (A") (A') (A') (A") (A') (A') (A') (A') (A')
                 (A') (A') (A') (A') (A') (A') (A') (A') (A') (A')
                 (A') (A') (A') (A') (A') (A") (A") (A') (A') (A')
                 (A') (A') (A')
 Initial guess <Sx>= 0.0000 <Sy>= 0.0000 <Sz>= 0.5000 <S**2>= 0.7516 S= 0.5008
 ExpMin= 3.60D-02 ExpMax= 1.06D+05 ExpMxC= 3.62D+03 IAcc=3 IRadAn=         5 AccDes= 0.00D+00
 Harris functional with IExCor= 1009 and IRadAn=       5 diagonalized for initial guess.
 HarFok:  IExCor= 1009 AccDes= 0.00D+00 IRadAn=         5 IDoV= 1 UseB2=F ITyADJ=14
 ICtDFT=  3500011 ScaDFX=  1.000000  1.000000  1.000000  1.000000
 FoFCou: FMM=F IPFlag=           0 FMFlag=      100000 FMFlg1=           0
         NFxFlg=           0 DoJE=T BraDBF=F KetDBF=T FulRan=T
         wScrn=  0.000000 ICntrl=       500 IOpCl=  0 I1Cent=   200000004 NGrid=           0
         NMat0=    1 NMatS0=      1 NMatT0=    0 NMatD0=    1 NMtDS0=    0 NMtDT0=    0
 Petite list used in FoFCou.
 Keep R1 and R2 ints in memory in symmetry-blocked form, NReq=469802474.
 Requested convergence on RMS density matrix=1.00D-08 within 128 cycles.
 Requested convergence on MAX density matrix=1.00D-06.
 Requested convergence on             energy=1.00D-06.
 No special actions if energy rises.
 SCF Done:  E(UM062X) =  -1151.37058756     A.U. after   48 cycles
            NFock= 48  Conv=0.45D-08     -V/T= 2.0024
 <Sx>= 0.0000 <Sy>= 0.0000 <Sz>= 0.5000 <S**2>= 0.7516 S= 0.5008
 <L.S>=  0.00000000000    
 Annihilation of the first spin contaminant:
 S**2 before annihilation     0.7516,   after     0.7500
 Calling FoFJK, ICntrl=      2127 FMM=F ISym2X=1 I1Cent= 0 IOpClX= 1 NMat=1 NMatS=1 NMatT=0.
 ***** Axes restored to original set *****
 -------------------------------------------------------------------
 Center     Atomic                   Forces (Hartrees/Bohr)
 Number     Number              X              Y              Z
 -------------------------------------------------------------------
      1        6          -0.002301194    0.000537171   -0.000000000
      2        6           0.000561804    0.002291323    0.000000000
      3        6           0.007417879    0.004558113    0.000000000
      4        6           0.002292667   -0.000538065    0.000000000
      5        6          -0.000558818   -0.002278381   -0.000000000
      6        6          -0.007415057   -0.004565323   -0.000000000
      7       17           0.003485073    0.002144538    0.000000000
      8        1           0.001058853   -0.000419558   -0.000000000
      9        1          -0.000104749   -0.001136562   -0.000000000
     10       17          -0.003486481   -0.002142373   -0.000000000
     11        1          -0.001056769    0.000416032    0.000000000
     12        1           0.000106792    0.001133085    0.000000000
 -------------------------------------------------------------------
 Cartesian Forces:  Max     0.007417879 RMS     0.002429567

 GradGradGradGradGradGradGradGradGradGradGradGradGradGradGradGradGradGrad
 Berny optimization.
 Using GEDIIS/GDIIS optimizer.
 FormGI is forming the generalized inverse of G from B-inverse, IUseBI=4.
 Internal  Forces:  Max     0.004092103 RMS     0.001296601
 Search for a local minimum.
 Step number   2 out of a maximum of   64
 All quantities printed in internal units (Hartrees-Bohrs-Radians)
 Mixed Optimization -- RFO/linear search
 Update second derivatives using D2CorX and points    1    2
 DE= -2.88D-03 DEPred=-2.66D-03 R= 1.08D+00
 TightC=F SS=  1.41D+00  RLast= 1.34D-01 DXNew= 5.0454D-01 4.0106D-01
 Trust test= 1.08D+00 RLast= 1.34D-01 DXMaxT set to 4.01D-01
 ITU=  1  0
 Use linear search instead of GDIIS.
     Eigenvalues ---    0.02138   0.02138   0.02138   0.02159   0.02160
     Eigenvalues ---    0.02170   0.02170   0.02180   0.02181   0.15879
     Eigenvalues ---    0.16000   0.16000   0.16000   0.20510   0.22000
     Eigenvalues ---    0.23005   0.25000   0.25000   0.25741   0.25860
     Eigenvalues ---    0.33285   0.33853   0.33869   0.33898   0.42118
     Eigenvalues ---    0.42485   0.46249   0.46496   0.46539   0.53206
 RFO step:  Lambda=-3.00882942D-04 EMin= 2.13845920D-02
 Quartic linear search produced a step of  0.07256.
 Iteration  1 RMS(Cart)=  0.00360987 RMS(Int)=  0.00000829
 Iteration  2 RMS(Cart)=  0.00001384 RMS(Int)=  0.00000000
 Iteration  3 RMS(Cart)=  0.00000000 RMS(Int)=  0.00000000
 ClnCor:  largest displacement from symmetrization is 1.25D-11 for atom     6.
 Variable       Old X    -DE/DX   Delta X   Delta X   Delta X     New X
                                 (Linear)    (Quad)   (Total)
    R1        2.62038   0.00330  -0.00066   0.00770   0.00704   2.62742
    R2        2.61621   0.00177  -0.00162   0.00454   0.00292   2.61914
    R3        2.05056  -0.00113  -0.00184  -0.00303  -0.00487   2.04569
    R4        2.61622   0.00177  -0.00162   0.00454   0.00292   2.61914
    R5        2.05056  -0.00113  -0.00180  -0.00305  -0.00485   2.04571
    R6        2.61622   0.00177  -0.00162   0.00454   0.00292   2.61914
    R7        3.33314  -0.00409  -0.00541  -0.01516  -0.02057   3.31257
    R8        2.62039   0.00329  -0.00066   0.00768   0.00703   2.62742
    R9        2.05055  -0.00113  -0.00182  -0.00302  -0.00485   2.04571
   R10        2.61622   0.00177  -0.00162   0.00454   0.00292   2.61914
   R11        2.05055  -0.00113  -0.00176  -0.00304  -0.00481   2.04575
   R12        3.33314  -0.00409  -0.00541  -0.01516  -0.02057   3.31257
    A1        2.07420   0.00099  -0.00053   0.00460   0.00407   2.07827
    A2        2.10514  -0.00062  -0.00061  -0.00279  -0.00340   2.10175
    A3        2.10385  -0.00037   0.00114  -0.00182  -0.00068   2.10317
    A4        2.07417   0.00100  -0.00053   0.00463   0.00409   2.07827
    A5        2.10516  -0.00062  -0.00061  -0.00280  -0.00341   2.10175
    A6        2.10385  -0.00037   0.00114  -0.00182  -0.00068   2.10317
    A7        2.13482  -0.00199   0.00106  -0.00923  -0.00817   2.12665
    A8        2.07418   0.00099  -0.00053   0.00461   0.00408   2.07827
    A9        2.07418   0.00099  -0.00053   0.00462   0.00409   2.07827
   A10        2.07420   0.00099  -0.00053   0.00460   0.00407   2.07827
   A11        2.10383  -0.00037   0.00114  -0.00180  -0.00066   2.10317
   A12        2.10515  -0.00062  -0.00061  -0.00280  -0.00341   2.10174
   A13        2.07416   0.00100  -0.00053   0.00464   0.00410   2.07827
   A14        2.10517  -0.00063  -0.00061  -0.00282  -0.00343   2.10174
   A15        2.10385  -0.00037   0.00114  -0.00181  -0.00067   2.10317
   A16        2.13482  -0.00199   0.00106  -0.00924  -0.00818   2.12665
   A17        2.07420   0.00099  -0.00053   0.00460   0.00407   2.07827
   A18        2.07417   0.00100  -0.00053   0.00464   0.00410   2.07827
    D1        0.00000  -0.00000   0.00000  -0.00000   0.00000   0.00000
    D2        3.14159   0.00000   0.00000   0.00000   0.00000   3.14159
    D3        3.14159  -0.00000   0.00000  -0.00000   0.00000   3.14159
    D4       -0.00000   0.00000   0.00000   0.00000   0.00000   0.00000
    D5       -0.00000   0.00000   0.00000  -0.00000   0.00000   0.00000
    D6        3.14159  -0.00000   0.00000  -0.00000   0.00000   3.14159
    D7        3.14159  -0.00000   0.00000  -0.00000   0.00000   3.14159
    D8        0.00000  -0.00000   0.00000  -0.00000  -0.00000   0.00000
    D9        0.00000   0.00000   0.00000   0.00000  -0.00000   0.00000
   D10        3.14159   0.00000   0.00000   0.00000   0.00000   3.14159
   D11        3.14159   0.00000   0.00000   0.00000   0.00000   3.14159
   D12       -0.00000   0.00000   0.00000   0.00000   0.00000   0.00000
   D13       -0.00000  -0.00000   0.00000  -0.00000   0.00000   0.00000
   D14        3.14159  -0.00000   0.00000  -0.00000   0.00000   3.14159
   D15        3.14159  -0.00000   0.00000  -0.00000   0.00000   3.14159
   D16        0.00000  -0.00000   0.00000  -0.00000   0.00000   0.00000
   D17       -0.00000   0.00000   0.00000   0.00000   0.00000   0.00000
   D18        3.14159   0.00000   0.00000   0.00000   0.00000   3.14159
   D19        3.14159  -0.00000   0.00000  -0.00000   0.00000   3.14159
   D20        0.00000  -0.00000   0.00000  -0.00000  -0.00000   0.00000
   D21        0.00000   0.00000   0.00000   0.00000  -0.00000   0.00000
   D22        3.14159   0.00000   0.00000   0.00000   0.00000   3.14159
   D23        3.14159  -0.00000   0.00000  -0.00000   0.00000   3.14159
   D24       -0.00000   0.00000   0.00000   0.00000   0.00000   0.00000
         Item               Value     Threshold  Converged?
 Maximum Force            0.004092     0.000450     NO 
 RMS     Force            0.001297     0.000300     NO 
 Maximum Displacement     0.012179     0.001800     NO 
 RMS     Displacement     0.003613     0.001200     NO 
 Predicted change in Energy=-1.688748D-04
 GradGradGradGradGradGradGradGradGradGradGradGradGradGradGradGradGradGrad

                          Input orientation:                          
 ---------------------------------------------------------------------
 Center     Atomic      Atomic             Coordinates (Angstroms)
 Number     Number       Type             X           Y           Z
 ---------------------------------------------------------------------
      1          6           0       -3.199407    0.198194    0.000000
      2          6           0       -2.014855    0.926184    0.000000
      3          6           0       -0.806773    0.246843    0.000000
      4          6           0       -0.746379   -1.137829   -0.000000
      5          6           0       -1.930929   -1.865819   -0.000000
      6          6           0       -3.139011   -1.186476   -0.000000
      7         17           0       -4.632458   -2.104300   -0.000000
      8          1           0       -4.155180    0.706497    0.000000
      9          1           0       -2.036627    2.008510    0.000000
     10         17           0        0.686671    1.164668    0.000000
     11          1           0        0.209401   -1.646139   -0.000000
     12          1           0       -1.909153   -2.948162   -0.000000
 ---------------------------------------------------------------------
                    Distance matrix (angstroms):
                    1          2          3          4          5
     1  C    0.000000
     2  C    1.390372   0.000000
     3  C    2.393128   1.385989   0.000000
     4  C    2.793261   2.422639   1.385988   0.000000
     5  C    2.422640   2.793264   2.393128   1.390370   0.000000
     6  C    1.385987   2.393128   2.737469   2.393127   1.385990
     7  Cl   2.712031   4.004457   4.490404   4.004457   2.712035
     8  H    1.082531   2.151570   3.379809   3.875753   3.400603
     9  H    2.151582   1.082545   2.148491   3.400616   3.875771
    10  Cl   4.004457   2.712032   1.752934   2.712032   4.004457
    11  H    3.875763   3.400612   2.148486   1.082541   2.151574
    12  H    3.400634   3.875788   3.379837   2.151593   1.082563
                    6          7          8          9         10
     6  C    0.000000
     7  Cl   1.752936   0.000000
     8  H    2.148475   2.851030   0.000000
     9  H    3.379821   4.863491   2.486666   0.000000
    10  Cl   4.490403   6.243339   4.863480   2.851039   0.000000
    11  H    3.379815   4.863487   4.958272   4.289651   2.851039
    12  H    2.148509   2.851052   4.289659   4.958312   4.863504
                   11         12
    11  H    0.000000
    12  H    2.486671   0.000000
 Stoichiometry    C6H4Cl2(1-,2)
 Framework group  CS[SG(C6H4Cl2)]
 Deg. of freedom    21
 Full point group                 CS      NOp   2
 Largest Abelian subgroup         CS      NOp   2
 Largest concise Abelian subgroup C1      NOp   1
                         Standard orientation:                         
 ---------------------------------------------------------------------
 Center     Atomic      Atomic             Coordinates (Angstroms)
 Number     Number       Type             X           Y           Z
 ---------------------------------------------------------------------
      1          6           0        1.211318    0.695186    0.000000
      2          6           0        1.211320   -0.695185   -0.000000
      3          6           0       -0.000000   -1.368735   -0.000000
      4          6           0       -1.211319   -0.695186   -0.000000
      5          6           0       -1.211322    0.695185    0.000000
      6          6           0       -0.000000    1.368734    0.000000
      7         17           0        0.000001    3.121669    0.000000
      8          1           0        2.144812    1.243331    0.000000
      9          1           0        2.144828   -1.243335   -0.000000
     10         17           0        0.000001   -3.121669   -0.000000
     11          1           0       -2.144823   -1.243332   -0.000000
     12          1           0       -2.144846    1.243339    0.000000
 ---------------------------------------------------------------------
 Rotational constants (GHZ):           5.6799907           0.6685596           0.5981542
 Standard basis: 6-311++G(d,p) (5D, 7F)
 There are   172 symmetry adapted cartesian basis functions of A'  symmetry.
 There are    56 symmetry adapted cartesian basis functions of A"  symmetry.
 There are   164 symmetry adapted basis functions of A'  symmetry.
 There are    56 symmetry adapted basis functions of A"  symmetry.
   220 basis functions,   358 primitive gaussians,   228 cartesian basis functions
    38 alpha electrons       37 beta electrons
       nuclear repulsion energy       449.4177046310 Hartrees.
 NAtoms=   12 NActive=   12 NUniq=   12 SFac= 1.00D+00 NAtFMM=   60 NAOKFM=F Big=F
 Integral buffers will be    131072 words long.
 Raffenetti 2 integral format.
 Two-electron integral symmetry is turned on.
 One-electron integrals computed using PRISM.
 NBasis=   220 RedAO= T EigKep=  1.05D-06  NBF=   164    56
 NBsUse=   220 1.00D-06 EigRej= -1.00D+00 NBFU=   164    56
 Initial guess from the checkpoint file:  "frequency_chks/14ClBzAnionRadical_Freq.chk"
 B after Tr=     0.000000    0.000000    0.000000
         Rot=    1.000000   -0.000000    0.000000    0.000002 Ang=   0.00 deg.
 Initial guess orbital symmetries:
 Alpha Orbitals:
       Occupied  (A') (A') (A') (A') (A') (A') (A') (A') (A') (A')
                 (A') (A') (A") (A") (A') (A') (A') (A') (A') (A')
                 (A') (A') (A') (A') (A') (A') (A') (A') (A") (A')
                 (A') (A") (A') (A") (A') (A") (A") (A')
       Virtual   (A') (A') (A") (A") (A') (A') (A') (A") (A') (A")
                 (A') (A") (A') (A') (A') (A') (A') (A") (A") (A')
                 (A') (A") (A') (A') (A') (A") (A') (A") (A') (A')
                 (A') (A') (A") (A') (A') (A') (A') (A') (A') (A')
                 (A') (A') (A') (A') (A') (A') (A') (A') (A') (A')
                 (A') (A") (A") (A') (A') (A') (A") (A') (A') (A')
                 (A") (A") (A') (A") (A") (A') (A") (A') (A') (A')
                 (A') (A') (A') (A") (A') (A') (A') (A') (A') (A')
                 (A') (A") (A") (A") (A') (A') (A') (A') (A') (A')
                 (A") (A') (A") (A") (A') (A") (A') (A') (A') (A")
                 (A') (A") (A') (A') (A') (A') (A") (A") (A') (A")
                 (A') (A') (A') (A') (A") (A') (A") (A") (A") (A')
                 (A') (A') (A') (A') (A') (A") (A") (A') (A") (A')
                 (A") (A") (A') (A') (A') (A') (A') (A') (A') (A')
                 (A") (A') (A') (A') (A') (A') (A') (A") (A") (A")
                 (A") (A') (A") (A') (A') (A') (A') (A') (A') (A')
                 (A') (A') (A') (A') (A') (A') (A') (A') (A') (A')
                 (A') (A') (A') (A') (A") (A") (A') (A') (A') (A')
                 (A') (A')
 Beta  Orbitals:
       Occupied  (A') (A') (A') (A') (A') (A') (A') (A') (A') (A')
                 (A') (A') (A") (A") (A') (A') (A') (A') (A') (A')
                 (A') (A') (A') (A') (A') (A') (A') (A') (A") (A')
                 (A") (A') (A') (A") (A') (A") (A")
       Virtual   (A") (A") (A') (A') (A') (A') (A') (A') (A") (A')
                 (A") (A') (A") (A') (A') (A") (A') (A') (A') (A')
                 (A") (A") (A") (A') (A") (A') (A') (A') (A') (A')
                 (A") (A') (A') (A') (A') (A') (A') (A') (A') (A')
                 (A') (A') (A') (A') (A') (A') (A') (A') (A') (A')
                 (A') (A') (A") (A") (A') (A') (A') (A") (A') (A')
                 (A') (A") (A") (A') (A") (A") (A') (A') (A") (A')
                 (A') (A') (A') (A') (A") (A') (A') (A') (A') (A')
                 (A') (A") (A") (A") (A') (A') (A') (A') (A') (A')
                 (A') (A") (A') (A") (A") (A') (A") (A') (A') (A')
                 (A") (A') (A") (A') (A') (A') (A') (A") (A") (A')
                 (A") (A') (A') (A') (A') (A") (A') (A") (A") (A")
                 (A') (A') (A') (A') (A') (A') (A") (A") (A') (A")
                 (A') (A") (A") (A') (A') (A') (A') (A') (A') (A')
                 (A') (A") (A') (A') (A') (A') (A') (A') (A") (A")
                 (A") (A") (A') (A") (A') (A') (A') (A') (A') (A')
                 (A') (A') (A') (A') (A') (A') (A') (A') (A') (A')
                 (A') (A') (A') (A') (A') (A") (A") (A') (A') (A')
                 (A') (A') (A')
 Initial guess <Sx>= 0.0000 <Sy>= 0.0000 <Sz>= 0.5000 <S**2>= 0.7517 S= 0.5009
 Keep R1 and R2 ints in memory in symmetry-blocked form, NReq=469802474.
 Requested convergence on RMS density matrix=1.00D-08 within 128 cycles.
 Requested convergence on MAX density matrix=1.00D-06.
 Requested convergence on             energy=1.00D-06.
 No special actions if energy rises.
 SCF Done:  E(UM062X) =  -1151.37077653     A.U. after  101 cycles
            NFock=101  Conv=0.76D-08     -V/T= 2.0024
 <Sx>= 0.0000 <Sy>= 0.0000 <Sz>= 0.5000 <S**2>= 0.7516 S= 0.5008
 <L.S>=  0.00000000000    
 Annihilation of the first spin contaminant:
 S**2 before annihilation     0.7516,   after     0.7500
 Calling FoFJK, ICntrl=      2127 FMM=F ISym2X=1 I1Cent= 0 IOpClX= 1 NMat=1 NMatS=1 NMatT=0.
 ***** Axes restored to original set *****
 -------------------------------------------------------------------
 Center     Atomic                   Forces (Hartrees/Bohr)
 Number     Number              X              Y              Z
 -------------------------------------------------------------------
      1        6           0.001623213    0.000829142   -0.000000000
      2        6          -0.001471212   -0.001065844    0.000000000
      3        6           0.002130113    0.001314592   -0.000000000
      4        6          -0.001606385   -0.000836450    0.000000000
      5        6           0.001470135    0.001043124   -0.000000000
      6        6          -0.002133411   -0.001311091    0.000000000
      7       17           0.000344796    0.000208793   -0.000000000
      8        1          -0.000394024    0.000271276    0.000000000
      9        1          -0.000063686    0.000464401   -0.000000000
     10       17          -0.000341650   -0.000213203    0.000000000
     11        1           0.000384360   -0.000259836   -0.000000000
     12        1           0.000057752   -0.000444903    0.000000000
 -------------------------------------------------------------------
 Cartesian Forces:  Max     0.002133411 RMS     0.000864067

 GradGradGradGradGradGradGradGradGradGradGradGradGradGradGradGradGradGrad
 Berny optimization.
 Using GEDIIS/GDIIS optimizer.
 FormGI is forming the generalized inverse of G from B-inverse, IUseBI=4.
 Internal  Forces:  Max     0.000926797 RMS     0.000386324
 Search for a local minimum.
 Step number   3 out of a maximum of   64
 All quantities printed in internal units (Hartrees-Bohrs-Radians)
 Mixed Optimization -- En-DIIS/RFO-DIIS
 Update second derivatives using D2CorX and points    1    2    3
 DE= -1.89D-04 DEPred=-1.69D-04 R= 1.12D+00
 TightC=F SS=  1.41D+00  RLast= 3.73D-02 DXNew= 6.7450D-01 1.1180D-01
 Trust test= 1.12D+00 RLast= 3.73D-02 DXMaxT set to 4.01D-01
 ITU=  1  1  0
 Use linear search instead of GDIIS.
     Eigenvalues ---    0.02138   0.02138   0.02138   0.02159   0.02160
     Eigenvalues ---    0.02170   0.02170   0.02180   0.02181   0.15239
     Eigenvalues ---    0.16000   0.16000   0.16000   0.17458   0.22000
     Eigenvalues ---    0.23002   0.25000   0.25000   0.25860   0.26624
     Eigenvalues ---    0.33853   0.33869   0.33897   0.35443   0.42164
     Eigenvalues ---    0.42458   0.46249   0.46542   0.48992   0.52063
 RFO step:  Lambda=-2.37323627D-05 EMin= 2.13845920D-02
 Quartic linear search produced a step of  0.14486.
 Iteration  1 RMS(Cart)=  0.00147036 RMS(Int)=  0.00000214
 Iteration  2 RMS(Cart)=  0.00000337 RMS(Int)=  0.00000000
 Iteration  3 RMS(Cart)=  0.00000000 RMS(Int)=  0.00000000
 ClnCor:  largest displacement from symmetrization is 1.33D-12 for atom    12.
 Variable       Old X    -DE/DX   Delta X   Delta X   Delta X     New X
                                 (Linear)    (Quad)   (Total)
    R1        2.62742  -0.00057   0.00102  -0.00216  -0.00114   2.62628
    R2        2.61914   0.00077   0.00042   0.00125   0.00167   2.62080
    R3        2.04569   0.00048  -0.00071   0.00167   0.00096   2.04665
    R4        2.61914   0.00077   0.00042   0.00124   0.00166   2.62080
    R5        2.04571   0.00047  -0.00070   0.00164   0.00094   2.04665
    R6        2.61914   0.00077   0.00042   0.00124   0.00167   2.62080
    R7        3.31257  -0.00040  -0.00298  -0.00082  -0.00380   3.30877
    R8        2.62742  -0.00057   0.00102  -0.00214  -0.00113   2.62629
    R9        2.04571   0.00046  -0.00070   0.00162   0.00092   2.04662
   R10        2.61914   0.00076   0.00042   0.00124   0.00166   2.62080
   R11        2.04575   0.00045  -0.00070   0.00158   0.00088   2.04663
[...]
    R5        2.04665   0.00020   0.00000   0.00085   0.00085   2.04750
    R6        2.62080   0.00010   0.00000   0.00027   0.00027   2.62107
    R7        3.30877   0.00006   0.00000  -0.00016  -0.00016   3.30861
    R8        2.62629  -0.00027   0.00000  -0.00059  -0.00059   2.62570
    R9        2.04662   0.00013   0.00000   0.00023   0.00023   2.04686
   R10        2.62080   0.00010   0.00000   0.00027   0.00027   2.62107
   R11        2.04663   0.00013   0.00000   0.00023   0.00023   2.04686
   R12        3.30877   0.00006   0.00000  -0.00016  -0.00016   3.30861
    A1        2.08051   0.00012   0.00000   0.00069   0.00069   2.08120
    A2        2.10001  -0.00008   0.00000  -0.00093  -0.00093   2.09908
    A3        2.10267  -0.00003   0.00000   0.00024   0.00024   2.10291
    A4        2.08051   0.00012   0.00000   0.00068   0.00068   2.08120
    A5        2.10001  -0.00008   0.00000  -0.00093  -0.00093   2.09908
    A6        2.10267  -0.00003   0.00000   0.00024   0.00024   2.10291
    A7        2.12216  -0.00022   0.00000  -0.00132  -0.00132   2.12084
    A8        2.08053   0.00015   0.00000   0.00109   0.00109   2.08162
    A9        2.08049   0.00007   0.00000   0.00023   0.00023   2.08072
   A10        2.08051   0.00011   0.00000   0.00064   0.00064   2.08115
   A11        2.10263  -0.00008   0.00000  -0.00074  -0.00074   2.10189
   A12        2.10004  -0.00003   0.00000   0.00010   0.00010   2.10015
   A13        2.08051   0.00011   0.00000   0.00064   0.00064   2.08115
   A14        2.10004  -0.00002   0.00000   0.00010   0.00010   2.10015
   A15        2.10263  -0.00008   0.00000  -0.00074  -0.00074   2.10189
   A16        2.12216  -0.00022   0.00000  -0.00132  -0.00132   2.12084
   A17        2.08053   0.00016   0.00000   0.00109   0.00109   2.08162
   A18        2.08049   0.00007   0.00000   0.00023   0.00023   2.08072
    D1        0.00000   0.00000   0.00000   0.00000  -0.00000   0.00000
    D2        3.14159  -0.00000   0.00000   0.00000   0.00000   3.14159
    D3        3.14159   0.00000   0.00000  -0.00000   0.00000   3.14159
    D4        0.00000   0.00000   0.00000  -0.00000   0.00000   0.00000
    D5       -0.00000   0.00000   0.00000  -0.00000   0.00000   0.00000
    D6        3.14159   0.00000   0.00000  -0.00000   0.00000   3.14159
    D7        3.14159  -0.00000   0.00000  -0.00000   0.00000   3.14159
    D8       -0.00000   0.00000   0.00000  -0.00000   0.00000   0.00000
    D9       -0.00000   0.00000   0.00000   0.00000   0.00000   0.00000
   D10        3.14159  -0.00000   0.00000   0.00000   0.00000   3.14159
   D11        3.14159   0.00000   0.00000   0.00000   0.00000   3.14159
   D12       -0.00000   0.00000   0.00000   0.00000   0.00000   0.00000
   D13       -0.00000   0.00000   0.00000  -0.00000   0.00000   0.00000
   D14        3.14159   0.00000   0.00000  -0.00000   0.00000   3.14159
   D15        3.14159   0.00000   0.00000  -0.00000   0.00000   3.14159
   D16        0.00000   0.00000   0.00000  -0.00000   0.00000   0.00000
   D17        0.00000  -0.00000   0.00000  -0.00000   0.00000   0.00000
   D18        3.14159  -0.00000   0.00000   0.00000   0.00000   3.14159
   D19        3.14159   0.00000   0.00000  -0.00000   0.00000   3.14159
   D20        0.00000  -0.00000   0.00000   0.00000  -0.00000   0.00000
   D21       -0.00000   0.00000   0.00000   0.00000   0.00000   0.00000
   D22        3.14159  -0.00000   0.00000   0.00000   0.00000   3.14159
   D23        3.14159  -0.00000   0.00000   0.00000   0.00000   3.14159
   D24        0.00000  -0.00000   0.00000   0.00000  -0.00000   0.00000
         Item               Value     Threshold  Converged?
 Maximum Force            0.000315     0.000450     YES
 RMS     Force            0.000103     0.000300     YES
 Maximum Displacement     0.001989     0.001800     NO 
 RMS     Displacement     0.000609     0.001200     YES
 Predicted change in Energy=-1.551396D-06
                           ----------------------------
                           ! Non-Optimized Parameters !
                           ! (Angstroms and Degrees)  !
 --------------------------                            --------------------------
 ! Name  Definition              Value          Derivative Info.                !
 --------------------------------------------------------------------------------
 ! R1    R(1,2)                  1.3893         -DE/DX =   -0.0003              !
 ! R2    R(1,6)                  1.3871         -DE/DX =    0.0001              !
 ! R3    R(1,8)                  1.0835         -DE/DX =    0.0002              !
 ! R4    R(2,3)                  1.3871         -DE/DX =    0.0001              !
 ! R5    R(2,9)                  1.0835         -DE/DX =    0.0002              !
 ! R6    R(3,4)                  1.387          -DE/DX =    0.0001              !
 ! R7    R(3,10)                 1.7508         -DE/DX =    0.0001              !
 ! R8    R(4,5)                  1.3895         -DE/DX =   -0.0003              !
 ! R9    R(4,11)                 1.0831         -DE/DX =    0.0001              !
 ! R10   R(5,6)                  1.387          -DE/DX =    0.0001              !
 ! R11   R(5,12)                 1.0831         -DE/DX =    0.0001              !
 ! R12   R(6,7)                  1.7508         -DE/DX =    0.0001              !
 ! A1    A(2,1,6)              119.2438         -DE/DX =    0.0001              !
 ! A2    A(2,1,8)              120.2683         -DE/DX =   -0.0001              !
 ! A3    A(6,1,8)              120.4879         -DE/DX =    0.0                 !
 ! A4    A(1,2,3)              119.2438         -DE/DX =    0.0001              !
 ! A5    A(1,2,9)              120.2683         -DE/DX =   -0.0001              !
 ! A6    A(3,2,9)              120.4879         -DE/DX =    0.0                 !
 ! A7    A(2,3,4)              121.5153         -DE/DX =   -0.0002              !
 ! A8    A(2,3,10)             119.2682         -DE/DX =    0.0002              !
 ! A9    A(4,3,10)             119.2165         -DE/DX =    0.0001              !
 ! A10   A(3,4,5)              119.2409         -DE/DX =    0.0001              !
 ! A11   A(3,4,11)             120.4296         -DE/DX =   -0.0001              !
 ! A12   A(5,4,11)             120.3295         -DE/DX =    0.0                 !
 ! A13   A(4,5,6)              119.2409         -DE/DX =    0.0001              !
 ! A14   A(4,5,12)             120.3295         -DE/DX =    0.0                 !
 ! A15   A(6,5,12)             120.4296         -DE/DX =   -0.0001              !
 ! A16   A(1,6,5)              121.5153         -DE/DX =   -0.0002              !
 ! A17   A(1,6,7)              119.2682         -DE/DX =    0.0002              !
 ! A18   A(5,6,7)              119.2165         -DE/DX =    0.0001              !
 ! D1    D(6,1,2,3)              0.0            -DE/DX =    0.0                 !
 ! D2    D(6,1,2,9)            180.0            -DE/DX =    0.0                 !
 ! D3    D(8,1,2,3)            180.0            -DE/DX =    0.0                 !
 ! D4    D(8,1,2,9)              0.0            -DE/DX =    0.0                 !
 ! D5    D(2,1,6,5)              0.0            -DE/DX =    0.0                 !
 ! D6    D(2,1,6,7)            180.0            -DE/DX =    0.0                 !
 ! D7    D(8,1,6,5)            180.0            -DE/DX =    0.0                 !
 ! D8    D(8,1,6,7)              0.0            -DE/DX =    0.0                 !
 ! D9    D(1,2,3,4)              0.0            -DE/DX =    0.0                 !
 ! D10   D(1,2,3,10)           180.0            -DE/DX =    0.0                 !
 ! D11   D(9,2,3,4)            180.0            -DE/DX =    0.0                 !
 ! D12   D(9,2,3,10)             0.0            -DE/DX =    0.0                 !
 ! D13   D(2,3,4,5)              0.0            -DE/DX =    0.0                 !
 ! D14   D(2,3,4,11)           180.0            -DE/DX =    0.0                 !
 ! D15   D(10,3,4,5)           180.0            -DE/DX =    0.0                 !
 ! D16   D(10,3,4,11)            0.0            -DE/DX =    0.0                 !
 ! D17   D(3,4,5,6)              0.0            -DE/DX =    0.0                 !
 ! D18   D(3,4,5,12)           180.0            -DE/DX =    0.0                 !
 ! D19   D(11,4,5,6)           180.0            -DE/DX =    0.0                 !
 ! D20   D(11,4,5,12)            0.0            -DE/DX =    0.0                 !
 ! D21   D(4,5,6,1)              0.0            -DE/DX =    0.0                 !
 ! D22   D(4,5,6,7)            180.0            -DE/DX =    0.0                 !
 ! D23   D(12,5,6,1)           180.0            -DE/DX =    0.0                 !
 ! D24   D(12,5,6,7)             0.0            -DE/DX =    0.0                 !
 --------------------------------------------------------------------------------
 GradGradGradGradGradGradGradGradGradGradGradGradGradGradGradGradGradGrad


 ----------------------------------------------------------------------

 Electric dipole moment (input orientation):
 (Debye = 10**-18 statcoulomb cm , SI units = C m)
                  (au)            (Debye)         (10**-30 SI)
   Tot        0.115315D+00      0.293103D+00      0.977685D+00
   x          0.603761D-01      0.153461D+00      0.511890D+00
   y         -0.982465D-01     -0.249718D+00     -0.832969D+00
   z          0.000000D+00      0.000000D+00      0.000000D+00

 Dipole polarizability, Alpha (input orientation).
 (esu units = cm**3 , SI units = C**2 m**2 J**-1)
 Alpha(0;0):
               (au)            (10**-24 esu)      (10**-40 SI)
   iso        0.447593D+05      0.663264D+04      0.737980D+04
   aniso      0.158363D+06      0.234670D+05      0.261106D+05
   xx         0.299700D+05      0.444109D+04      0.494138D+04
   yx        -0.737549D+05     -0.109293D+05     -0.121605D+05
   yy         0.104650D+06      0.155075D+05      0.172544D+05
   zx         0.000000D+00      0.000000D+00      0.000000D+00
   zy         0.000000D+00      0.000000D+00      0.000000D+00
   zz        -0.341865D+03     -0.506592D+02     -0.563659D+02

 ----------------------------------------------------------------------

 Dipole orientation:
     6         -4.22106457         -2.59399923         -3.48321152
     6         -1.98352324         -1.21894789         -3.48327194
     6         -0.89399235         -0.54939113         -1.19564666
     6         -1.98342661         -1.21888851          1.09204089
     6         -4.22097743         -2.59394567          1.09210068
     6         -5.31050357         -3.26349951         -1.19552569
    17         -8.12951269         -4.99588416         -1.19539061
     1         -5.10141241         -3.13500531         -5.24986590
     1         -1.10324551         -0.67798489         -5.24997605
    17          1.92501619          1.18299316         -1.19566518
     1         -1.10303434         -0.67785512          2.85863649
     1         -5.10130036         -3.13493645          2.85874669

 Electric dipole moment (dipole orientation):
 (Debye = 10**-18 statcoulomb cm , SI units = C m)
                  (au)            (Debye)         (10**-30 SI)
   Tot        0.115315D+00      0.293103D+00      0.977685D+00
   x          0.000000D+00      0.000000D+00      0.000000D+00
   y          0.000000D+00      0.000000D+00      0.000000D+00
   z          0.115315D+00      0.293103D+00      0.977685D+00

 Dipole polarizability, Alpha (dipole orientation).
 (esu units = cm**3 , SI units = C**2 m**2 J**-1)
 Alpha(0;0):
               (au)            (10**-24 esu)      (10**-40 SI)
   iso        0.447593D+05      0.663264D+04      0.737980D+04
   aniso      0.158363D+06      0.234670D+05      0.261106D+05
   xx        -0.112420D+05     -0.166589D+04     -0.185355D+04
   yx        -0.669852D+04     -0.992619D+03     -0.110444D+04
   yy        -0.445835D+04     -0.660660D+03     -0.735083D+03
   zx         0.465274D+01      0.689465D+00      0.767134D+00
   zy         0.285928D+01      0.423702D+00      0.471432D+00
   zz         0.149978D+06      0.222245D+05      0.247280D+05

 ----------------------------------------------------------------------
 1\1\GINC-SH03-08N26\Freq\UM062X\6-311++G(d,p)\C6H4Cl2(1-,2)\JLAPIER\09
 -Dec-2025\0\\#N Geom=AllCheck Guess=TCheck SCRF=Check GenChk UM062X/6-
 311++G(d,p) Freq\\2-Chloro-Benzene Anion Radical (14)\\-1,2\C,-3.19876
 05407,0.1977161534,0.\C,-2.0147213957,0.9253892264,0.\C,-0.8043499401,
 0.2483304901,0.\C,-0.747019935,-1.13735325,0.\C,-1.9310642685,-1.86502
 91245,0.\C,-3.1414335154,-1.187968346,0.\Cl,-4.6331514723,-2.104767728
 3,0.\H,-4.1540952864,0.7079219184,0.\H,-2.0383869949,2.0081707903,0.\C
 l,0.6874000012,1.1650771256,0.\H,0.208322037,-1.6475180622,0.\H,-1.907
 4386892,-2.9477991933,0.\\Version=ES64L-G16RevB.01\State=2-A'\HF=-1151
 .3707946\S2=0.751645\S2-1=0.\S2A=0.750003\RMSD=7.691e-09\RMSF=2.308e-0
 4\ZeroPoint=0.079509\Thermal=0.0859297\Dipole=0.0603761,-0.0982465,0.\
 DipoleDeriv=14.1734623,-24.1186673,0.,-28.6784195,34.4831674,0.,0.,0.,
 1.8167634,9.0638892,-26.0918368,0.,-21.5318182,39.5936313,0.,0.,0.,1.8
 168568,28.4466135,9.9001281,0.,8.9465867,20.0376557,0.,0.,0.,-4.527983
 5,11.3947292,-23.5026343,0.,-19.4104832,17.8629175,0.,0.,0.,1.8586323,
 -0.7495971,-13.2623852,0.,-17.3545045,30.008133,0.,0.,0.,1.8587133,29.
 3453806,8.495085,0.,9.4414055,19.1387137,0.,0.,0.,-4.5279731,-12.17026
 03,-9.4998012,0.,-22.9633272,13.3050689,0.,0.,0.,-0.317575,-11.3897465
 ,11.9754877,0.,38.5841343,-67.9377577,0.,0.,0.,0.3938722,-36.0261728,5
 1.0561345,0.,24.4486808,-43.3017623,0.,0.,0.,0.393874,-4.9731608,-26.6
 086902,0.,-13.1411035,6.1073415,0.,0.,0.,-0.3175669,-5.9342866,8.85466
 31,0.,24.578083,-43.2716738,0.,0.,0.,0.2761885,-22.1808507,32.8025164,
 0.,17.0807658,-27.0254354,0.,0.,0.,0.2761978\Polar=29969.9589285,-7375
 4.8648481,104649.6588741,0.,0.,-341.8651234\Quadrupole=-1.2446563,-6.5
 794014,7.8240576,5.2684213,0.,0.\PG=CS [SG(C6H4Cl2)]\NImag=1\\0.736879
 35,-0.02760636,0.67945756,0.,0.,0.15063309,-0.29370033,-0.04833136,0.,
 0.66892309,-0.12984714,-0.20348881,0.,0.00679982,0.74741182,0.,0.,-0.0
 6918071,0.,0.,0.15063311,-0.06077643,-0.04644394,0.,-0.28099065,0.1473
 2780,0.,0.60468096,0.03764334,0.06203406,0.,0.06217016,-0.19163571,0.,
 -0.05014780,0.65321217,0.,0.,0.00198655,0.,0.,-0.07296091,0.,0.,0.1473
 6690,-0.01972255,-0.02637263,0.,0.03322064,0.03019905,0.,-0.12831377,0
 .06624326,0.,0.73894312,-0.03049609,-0.06902284,0.,0.09294738,-0.02596
 002,0.,-0.01859705,-0.34731203,0.,-0.03112336,0.68959189,0.,0.,0.00964
 740,0.,0.,-0.00289970,0.,0.,-0.07325279,0.,0.,0.14999983,0.03574166,0.
 09167116,0.,-0.08188214,0.00097509,0.,0.03069763,-0.09659883,0.,-0.289
 59256,-0.05362763,0.,0.67457741,0.02892281,-0.02848119,0.,0.00509870,-
 0.00686391,0.,-0.01331192,-0.03320984,0.,-0.13287103,-0.19516866,0.,0.
 00146516,0.75395535,0.,0.,-0.00289970,0.,0.,0.00964721,0.,0.,0.0019473
 0,0.,0.,-0.06841179,0.,0.,0.14999985,-0.12543981,-0.01658562,0.,0.0334
 3129,-0.01005469,0.,0.02683983,0.06881726,0.,-0.06446273,-0.04842025,0
 .,-0.28342844,0.14477549,0.,0.60289249,0.06857474,-0.34718631,0.,-0.09
 413928,-0.03217359,0.,0.06660038,-0.04172188,0.,0.03486849,0.06195104,
 0.,0.05993718,-0.19219861,0.,-0.04924308,0.65500043,0.,0.,-0.07296095,
 0.,0.,0.00198655,0.,0.,0.00792596,0.,0.,0.00194719,0.,0.,-0.07325260,0
 .,0.,0.14736685,-0.01192592,-0.00794831,0.,0.00694094,-0.00532536,0.,-
 0.02826099,-0.01854064,0.,-0.00120285,0.01427892,0.,-0.03256235,-0.022
 49836,0.,-0.15078253,-0.06801330,0.,0.19117483,-0.03077807,-0.02359870
 ,0.,0.01319994,-0.01466706,0.,-0.02340095,-0.01430637,0.,0.00521974,0.
 00105051,0.,0.00712708,-0.00014441,0.,-0.07188538,-0.08585028,0.,0.099
 70433,0.09438453,0.,0.,0.00657175,0.,0.,0.00692511,0.,0.,-0.00208668,0
 .,0.,0.00710057,0.,0.,0.00634818,0.,0.,-0.02677533,0.,0.,0.01081161,-0
 .27495309,0.11862664,0.,-0.01354695,0.00636945,0.,-0.00866455,-0.00987
 490,0.,0.00200975,-0.00123709,0.,0.00172974,-0.00223554,0.,0.00234177,
 -0.00597804,0.,0.00292443,-0.00339881,0.,0.29128878,0.10285804,-0.0955
 4274,0.,-0.02945123,0.03787723,0.,-0.00653641,0.00394574,0.,-0.0141253
 9,0.01285794,0.,-0.00505984,0.01118636,0.,0.01624791,-0.00953591,0.,0.
 00455914,0.01614006,0.,-0.11765231,0.08309134,0.,0.,-0.03703263,0.,0.,
 0.00093112,0.,0.,0.00558257,0.,0.,-0.00029678,0.,0.,0.00540180,0.,0.,0
 .00182519,0.,0.,-0.00301073,0.,0.,0.02724461,0.01808353,-0.04546477,0.
 ,-0.04289095,-0.01463332,0.,-0.00297638,0.01893751,0.,0.00631701,-0.00
 738174,0.,0.00445416,-0.01536291,0.,-0.00524342,-0.00827139,0.,0.00317
 643,-0.00880970,0.,-0.00653490,0.03358930,0.,0.03074443,-0.00964489,0.
 00624647,0.,0.00113488,-0.32760276,0.,-0.00328507,-0.00421933,0.,-0.00
 455797,0.00659872,0.,-0.00247472,0.01041415,0.,-0.01160659,0.00052302,
 0.,0.00332040,0.01002919,0.,0.00796435,-0.02757301,0.,0.01425965,0.343
 63444,0.,0.,0.00093102,0.,0.,-0.03703278,0.,0.,0.00182522,0.,0.,0.0054
 0171,0.,0.,-0.00029673,0.,0.,0.00558261,0.,0.,-0.00132427,0.,0.,-0.000
 68816,0.,0.,0.02724480,-0.00708556,0.02030198,0.,-0.03682438,-0.018171
 53,0.,-0.15547667,-0.06950830,0.,-0.01295393,-0.00280046,0.,0.00844815
 ,0.00033411,0.,-0.03405508,-0.02046635,0.,0.01630911,0.01664140,0.,0.0
 0641906,-0.01045299,0.,0.01391267,-0.00896222,0.,0.19449281,0.00177535
 ,-0.00064019,0.,0.00465663,0.00129990,0.,-0.06563713,-0.08115605,0.,-0
 .03242696,-0.01975287,0.,0.00939222,-0.00860021,0.,-0.01560701,-0.0085
 1147,0.,0.00694375,0.00436857,0.,0.00167896,0.00678518,0.,-0.00100213,
 0.00515232,0.,0.09802415,0.09106644,0.,0.,0.00692514,0.,0.,0.00657172,
 0.,0.,-0.02677535,0.,0.,0.00634823,0.,0.,0.00710057,0.,0.,-0.00208672,
 0.,0.,0.00002360,0.,0.,-0.00132427,0.,0.,-0.00301070,0.,0.,0.01081154,
 0.00079029,-0.00291789,0.,0.00153364,-0.00140894,0.,0.00617569,-0.0029
 9696,0.,-0.27708696,0.12071129,0.,-0.01633390,0.00971556,0.,-0.0034526
 6,-0.00619359,0.,0.00081038,-0.00032101,0.,-0.00000242,0.00449135,0.,-
 0.00338939,0.00129017,0.,0.00104352,-0.00346272,0.,0.29295311,-0.00970
 139,0.01345497,0.,-0.00863828,0.00734303,0.,0.01988743,-0.00842494,0.,
 0.11000443,-0.11092333,0.,-0.01948131,0.02526877,0.,-0.00588015,0.0033
 1288,0.,-0.00182514,0.00812733,0.,0.00463829,-0.02428752,0.,0.02172401
 ,-0.01456662,0.,-0.00210722,0.00682086,0.,-0.12328219,0.10655415,0.,0.
 ,0.00012678,0.,0.,0.00525238,0.,0.,0.00233691,0.,0.,-0.03665828,0.,0.,
 0.00107447,0.,0.,0.00610435,0.,0.,-0.00125665,0.,0.,0.00046694,0.,0.,0
 .00090032,0.,0.,-0.00332713,0.,0.,0.02666104,0.00210887,-0.00892889,0.
 ,0.00578579,-0.01223023,0.,-0.00293468,-0.00614410,0.,0.01284483,-0.03
 425390,0.,-0.05184936,-0.00403206,0.,0.00135927,0.02232426,0.,0.003398
 53,-0.00329856,0.,-0.00301161,0.02153243,0.,-0.01565317,0.01256200,0.,
 0.00577029,-0.00433512,0.,-0.00304130,0.01466151,0.,0.04522254,-0.0017
 0034,0.00676771,0.,-0.00544736,0.00845988,0.,-0.00645534,0.00279419,0.
 ,-0.00505763,-0.00391034,0.,0.00667443,-0.33615782,0.,-0.00055788,-0.0
 0360933,0.,-0.00465542,0.00446663,0.,0.00109899,-0.01494467,0.,0.01241
 549,-0.00863658,0.,-0.00283256,0.00316753,0.,0.00437494,-0.01267956,0.
 ,0.00214268,0.35428237,0.,0.,0.00525226,0.,0.,0.00012689,0.,0.,0.00610
 431,0.,0.,0.00107441,0.,0.,-0.03665857,0.,0.,0.00233688,0.,0.,-0.00332
 715,0.,0.,0.00090034,0.,0.,0.00046695,0.,0.,-0.00125664,0.,0.,-0.00168
 113,0.,0.,0.02666145\\-0.00063116,-0.00016414,0.,0.00043169,0.00048813
 ,0.,-0.00030915,-0.00022463,0.,0.00053133,0.00021145,0.,-0.00042900,-0
 .00037703,0.,0.00034046,0.00017401,0.,0.00003476,0.00005190,0.,0.00016
 495,-0.00011445,0.,0.00002753,-0.00019839,0.,-0.00006208,-0.00000774,0
 .,-0.00012471,0.00003477,0.,0.00002537,0.00012613,0.\\\@


 ALL SCIENCE IS EITHER PHYSICS, OR STAMP COLLECTING.
   --ERNEST RUTHERFORD, 1871-1937.
 Job cpu time:       0 days  0 hours 24 minutes 31.5 seconds.
 Elapsed time:       0 days  0 hours  6 minutes 54.7 seconds.
 File lengths (MBytes):  RWF=    157 Int=      0 D2E=      0 Chk=     34 Scr=      1
 Normal termination of Gaussian 16 at Tue Dec  9 14:02:51 2025.
