 Entering Gaussian System, Link 0=g16
 Initial command:
 /share/software/user/restricted/gaussian/g16.B01/l1.exe "/home/users/jlapier/Chloroaromatics/Gau-17916.inp" -scrdir="/home/users/jlapier/Chloroaromatics/"
 Entering Link 1 = /share/software/user/restricted/gaussian/g16.B01/l1.exe PID=     17917.
  
 Copyright (c) 1988-2017, Gaussian, Inc.  All Rights Reserved.
  
 This is part of the Gaussian(R) 16 program.  It is based on
 the Gaussian(R) 09 system (copyright 2009, Gaussian, Inc.),
 the Gaussian(R) 03 system (copyright 2003, Gaussian, Inc.),
 the Gaussian(R) 98 system (copyright 1998, Gaussian, Inc.),
 the Gaussian(R) 94 system (copyright 1995, Gaussian, Inc.),
 the Gaussian 92(TM) system (copyright 1992, Gaussian, Inc.),
 the Gaussian 90(TM) system (copyright 1990, Gaussian, Inc.),
 the Gaussian 88(TM) system (copyright 1988, Gaussian, Inc.),
 the Gaussian 86(TM) system (copyright 1986, Carnegie Mellon
 University), and the Gaussian 82(TM) system (copyright 1983,
 Carnegie Mellon University). Gaussian is a federally registered
 trademark of Gaussian, Inc.
  
 This software contains proprietary and confidential information,
 including trade secrets, belonging to Gaussian, Inc.
  
 This software is provided under written license and may be
 used, copied, transmitted, or stored only in accord with that
 written license.
  
 The following legend is applicable only to US Government
 contracts under FAR:
  
                    RESTRICTED RIGHTS LEGEND
  
 Use, reproduction and disclosure by the US Government is
 subject to restrictions as set forth in subparagraphs (a)
 and (c) of the Commercial Computer Software - Restricted
 Rights clause in FAR 52.227-19.
  
 Gaussian, Inc.
 340 Quinnipiac St., Bldg. 40, Wallingford CT 06492
  
  
 ---------------------------------------------------------------
 Warning -- This program may not be used in any manner that
 competes with the business of Gaussian, Inc. or will provide
 assistance to any competitor of Gaussian, Inc.  The licensee
 of this program is prohibited from giving any competitor of
 Gaussian, Inc. access to this program.  By using this program,
 the user acknowledges that Gaussian, Inc. is engaged in the
 business of creating and licensing software in the field of
 computational chemistry and represents and warrants to the
 licensee that it is not a competitor of Gaussian, Inc. and that
 it will not use this program in any manner prohibited above.
 ---------------------------------------------------------------
  

 Cite this work as:
 Gaussian 16, Revision B.01,
 M. J. Frisch, G. W. Trucks, H. B. Schlegel, G. E. Scuseria, 
 M. A. Robb, J. R. Cheeseman, G. Scalmani, V. Barone, 
 G. A. Petersson, H. Nakatsuji, X. Li, M. Caricato, A. V. Marenich, 
 J. Bloino, B. G. Janesko, R. Gomperts, B. Mennucci, H. P. Hratchian, 
 J. V. Ortiz, A. F. Izmaylov, J. L. Sonnenberg, D. Williams-Young, 
 F. Ding, F. Lipparini, F. Egidi, J. Goings, B. Peng, A. Petrone, 
 T. Henderson, D. Ranasinghe, V. G. Zakrzewski, J. Gao, N. Rega, 
 G. Zheng, W. Liang, M. Hada, M. Ehara, K. Toyota, R. Fukuda, 
 J. Hasegawa, M. Ishida, T. Nakajima, Y. Honda, O. Kitao, H. Nakai, 
 T. Vreven, K. Throssell, J. A. Montgomery, Jr., J. E. Peralta, 
 F. Ogliaro, M. J. Bearpark, J. J. Heyd, E. N. Brothers, K. N. Kudin, 
 V. N. Staroverov, T. A. Keith, R. Kobayashi, J. Normand, 
 K. Raghavachari, A. P. Rendell, J. C. Burant, S. S. Iyengar, 
 J. Tomasi, M. Cossi, J. M. Millam, M. Klene, C. Adamo, R. Cammi, 
 J. W. Ochterski, R. L. Martin, K. Morokuma, O. Farkas, 
 J. B. Foresman, and D. J. Fox, Gaussian, Inc., Wallingford CT, 2016.
 
 ******************************************
 Gaussian 16:  ES64L-G16RevB.01 20-Dec-2017
                 9-Dec-2025 
 ******************************************
 %mem=8GB
 %nprocshare=4
 Will use up to    4 processors via shared memory.
 %oldchk=geometry_chks/1_3456ClBzNeutralRadical.chk
 %chk=frequency_chks/1_3456ClBzNeutralRadical_Freq.chk
 Copying data from "geometry_chks/1_3456ClBzNeutralRadical.chk" to current chk file "frequency_chks/1_3456ClBzNeutralRadical_Freq.chk"
 IOpt=  2 FromEx=T IUOpen= 4 IOptOp= 5 NList=   0 IFRang= 0 IUIn= 4 IUOut= 2.
 -------------------------------------------------------
 # opt freq 6-311++g(d,p) guess=read geom=allcheck m062x
 -------------------------------------------------------
 1/18=20,19=15,26=3,29=7,38=1/1,3;
 2/9=110,12=2,40=1/2;
 3/5=4,6=6,7=1111,11=2,14=-4,25=1,30=1,71=1,74=-55,116=-2/1,2,3;
 4/5=1/1;
 5/5=2,38=6/2;
 6/7=2,8=2,9=2,10=2,28=1/1;
 7//1,2,3,16;
 1/18=20,19=15,26=3/3(2);
 2/9=110/2;
 99//99;
 2/9=110/2;
 3/5=4,6=6,7=1111,11=2,14=-2,25=1,30=1,71=1,74=-55/1,2,3;
 4/5=5,16=3,69=1/1;
 5/5=2,38=5/2;
 7//1,2,3,16;
 1/18=20,19=15,26=3/3(-5);
 2/9=110/2;
 6/7=2,8=2,9=2,10=2,19=2,28=1/1;
 99/9=1/99;
 Structure from the checkpoint file:  "frequency_chks/1_3456ClBzNeutralRadical_Freq.chk"
 ----------------------------------
 Neutral Radical (removed 2) 1_3456
 ----------------------------------
 Charge =  0 Multiplicity = 2
 Redundant internal coordinates found in file.  (old form).
 C,0,-3.1032930833,0.1420602577,0.
 C,0,-1.9973886398,0.9557997078,0.
 C,0,-0.7504842034,0.2747801811,0.
 C,0,-0.7322165886,-1.1413890052,0.
 C,0,-1.9279195623,-1.9004434999,0.
 C,0,-3.1799125111,-1.2288248937,0.
 Cl,0,-4.65148123,-2.0333201674,0.
 Cl,0,-2.1284505686,2.6277894654,0.
 Cl,0,0.6847968501,1.1556183602,0.
 Cl,0,0.7541979816,-1.9459760539,0.
 Cl,0,-1.8806184403,-3.583794344,0.
 Recover connectivity data from disk.

 GradGradGradGradGradGradGradGradGradGradGradGradGradGradGradGradGradGrad
 Berny optimization.
 Initialization pass.
                           ----------------------------
                           !    Initial Parameters    !
                           ! (Angstroms and Degrees)  !
 --------------------------                            --------------------------
 ! Name  Definition              Value          Derivative Info.                !
 --------------------------------------------------------------------------------
 ! R1    R(1,2)                  1.373          estimate D2E/DX2                !
 ! R2    R(1,6)                  1.373          estimate D2E/DX2                !
 ! R3    R(2,3)                  1.4208         estimate D2E/DX2                !
 ! R4    R(2,8)                  1.6771         estimate D2E/DX2                !
 ! R5    R(3,4)                  1.4163         estimate D2E/DX2                !
 ! R6    R(3,9)                  1.684          estimate D2E/DX2                !
 ! R7    R(4,5)                  1.4163         estimate D2E/DX2                !
 ! R8    R(4,10)                 1.6902         estimate D2E/DX2                !
 ! R9    R(5,6)                  1.4208         estimate D2E/DX2                !
 ! R10   R(5,11)                 1.684          estimate D2E/DX2                !
 ! R11   R(6,7)                  1.6771         estimate D2E/DX2                !
 ! A1    A(2,1,6)              129.5451         estimate D2E/DX2                !
 ! A2    A(1,2,3)              115.0119         estimate D2E/DX2                !
 ! A3    A(1,2,8)              121.8641         estimate D2E/DX2                !
 ! A4    A(3,2,8)              123.124          estimate D2E/DX2                !
 ! A5    A(2,3,4)              119.381          estimate D2E/DX2                !
 ! A6    A(2,3,9)              119.8204         estimate D2E/DX2                !
 ! A7    A(4,3,9)              120.7986         estimate D2E/DX2                !
 ! A8    A(3,4,5)              121.6691         estimate D2E/DX2                !
 ! A9    A(3,4,10)             119.1654         estimate D2E/DX2                !
 ! A10   A(5,4,10)             119.1654         estimate D2E/DX2                !
 ! A11   A(4,5,6)              119.381          estimate D2E/DX2                !
 ! A12   A(4,5,11)             120.7986         estimate D2E/DX2                !
 ! A13   A(6,5,11)             119.8204         estimate D2E/DX2                !
 ! A14   A(1,6,5)              115.0119         estimate D2E/DX2                !
 ! A15   A(1,6,7)              121.864          estimate D2E/DX2                !
 ! A16   A(5,6,7)              123.124          estimate D2E/DX2                !
 ! D1    D(6,1,2,3)              0.0            estimate D2E/DX2                !
 ! D2    D(6,1,2,8)            180.0            estimate D2E/DX2                !
 ! D3    D(2,1,6,5)              0.0            estimate D2E/DX2                !
 ! D4    D(2,1,6,7)            180.0            estimate D2E/DX2                !
 ! D5    D(1,2,3,4)              0.0            estimate D2E/DX2                !
 ! D6    D(1,2,3,9)            180.0            estimate D2E/DX2                !
 ! D7    D(8,2,3,4)            180.0            estimate D2E/DX2                !
 ! D8    D(8,2,3,9)              0.0            estimate D2E/DX2                !
 ! D9    D(2,3,4,5)              0.0            estimate D2E/DX2                !
 ! D10   D(2,3,4,10)           180.0            estimate D2E/DX2                !
 ! D11   D(9,3,4,5)            180.0            estimate D2E/DX2                !
 ! D12   D(9,3,4,10)             0.0            estimate D2E/DX2                !
 ! D13   D(3,4,5,6)              0.0            estimate D2E/DX2                !
 ! D14   D(3,4,5,11)           180.0            estimate D2E/DX2                !
 ! D15   D(10,4,5,6)           180.0            estimate D2E/DX2                !
 ! D16   D(10,4,5,11)            0.0            estimate D2E/DX2                !
 ! D17   D(4,5,6,1)              0.0            estimate D2E/DX2                !
 ! D18   D(4,5,6,7)            180.0            estimate D2E/DX2                !
 ! D19   D(11,5,6,1)           180.0            estimate D2E/DX2                !
 ! D20   D(11,5,6,7)             0.0            estimate D2E/DX2                !
 --------------------------------------------------------------------------------
 Trust Radius=3.00D-01 FncErr=1.00D-07 GrdErr=1.00D-06 EigMax=2.50D+02 EigMin=1.00D-04
 Number of steps in this run=     57 maximum allowed number of steps=    100.
 GradGradGradGradGradGradGradGradGradGradGradGradGradGradGradGradGradGrad

                          Input orientation:                          
 ---------------------------------------------------------------------
 Center     Atomic      Atomic             Coordinates (Angstroms)
 Number     Number       Type             X           Y           Z
 ---------------------------------------------------------------------
      1          6           0       -3.103293    0.142060    0.000000
      2          6           0       -1.997389    0.955800    0.000000
      3          6           0       -0.750484    0.274780    0.000000
      4          6           0       -0.732217   -1.141389    0.000000
      5          6           0       -1.927920   -1.900443    0.000000
      6          6           0       -3.179913   -1.228825    0.000000
      7         17           0       -4.651481   -2.033320    0.000000
      8         17           0       -2.128451    2.627789    0.000000
      9         17           0        0.684797    1.155618    0.000000
     10         17           0        0.754198   -1.945976    0.000000
     11         17           0       -1.880618   -3.583794    0.000000
 ---------------------------------------------------------------------
                    Distance matrix (angstroms):
                    1          2          3          4          5
     1  C    0.000000
     2  C    1.373025   0.000000
     3  C    2.356549   1.420760   0.000000
     4  C    2.696154   2.449257   1.416287   0.000000
     5  C    2.356549   2.857088   2.473449   1.416287   0.000000
     6  C    1.373025   2.484139   2.857088   2.449257   1.420760
     7  Cl   2.670050   3.997380   4.532671   4.019475   2.726801
     8  Cl   2.670050   1.677119   2.726801   4.019475   4.532671
     9  Cl   3.921342   2.689618   1.684015   2.698920   4.020672
    10  Cl   4.386358   3.998941   2.682504   1.690204   2.682504
    11  Cl   3.921342   4.541096   4.020672   2.698920   1.684015
                    6          7          8          9         10
     6  C    0.000000
     7  Cl   1.677119   0.000000
     8  Cl   3.997380   5.300153   0.000000
     9  Cl   4.541095   6.216526   3.175161   0.000000
    10  Cl   3.998941   5.406385   5.406385   3.102371   0.000000
    11  Cl   2.689618   3.175162   6.216526   5.389192   3.102371
                   11
    11  Cl   0.000000
 Stoichiometry    C6Cl5(2)
 Framework group  CS[SG(C6Cl5)]
 Deg. of freedom    19
 Full point group                 CS      NOp   2
 Largest Abelian subgroup         CS      NOp   2
 Largest concise Abelian subgroup C1      NOp   1
                         Standard orientation:                         
 ---------------------------------------------------------------------
 Center     Atomic      Atomic             Coordinates (Angstroms)
 Number     Number       Type             X           Y           Z
 ---------------------------------------------------------------------
      1          6           0       -0.000000    1.715846    0.000000
      2          6           0        1.242070    1.130645    0.000000
      3          6           0        1.236725   -0.290105    0.000000
      4          6           0       -0.000000   -0.980308    0.000000
      5          6           0       -1.236725   -0.290105    0.000000
      6          6           0       -1.242070    1.130645    0.000000
      7         17           0       -2.650077    2.041822    0.000000
      8         17           0        2.650077    2.041821    0.000000
      9         17           0        2.694596   -1.133028    0.000000
     10         17           0        0.000000   -2.670512    0.000000
     11         17           0       -2.694596   -1.133028    0.000000
 ---------------------------------------------------------------------
 Rotational constants (GHZ):           0.7115010           0.4711252           0.2834421
 Standard basis: 6-311++G(d,p) (5D, 7F)
 There are   217 symmetry adapted cartesian basis functions of A'  symmetry.
 There are    76 symmetry adapted cartesian basis functions of A"  symmetry.
 There are   206 symmetry adapted basis functions of A'  symmetry.
 There are    76 symmetry adapted basis functions of A"  symmetry.
   282 basis functions,   481 primitive gaussians,   293 cartesian basis functions
    61 alpha electrons       60 beta electrons
       nuclear repulsion energy      1062.8292613406 Hartrees.
 NAtoms=   11 NActive=   11 NUniq=   11 SFac= 1.00D+00 NAtFMM=   60 NAOKFM=F Big=F
 Integral buffers will be    131072 words long.
 Raffenetti 2 integral format.
 Two-electron integral symmetry is turned on.
 One-electron integrals computed using PRISM.
 NBasis=   282 RedAO= T EigKep=  2.43D-06  NBF=   206    76
 NBsUse=   280 1.00D-06 EigRej=  4.48D-07 NBFU=   204    76
 Initial guess from the checkpoint file:  "frequency_chks/1_3456ClBzNeutralRadical_Freq.chk"
 B after Tr=     0.000000   -0.000000    0.000000
         Rot=    1.000000   -0.000000    0.000000    0.000000 Ang=   0.00 deg.
 Initial guess orbital symmetries:
 Alpha Orbitals:
       Occupied  (A') (A') (A') (A') (A') (A') (A') (A') (A') (A')
                 (A') (A') (A') (A') (A") (A') (A') (A") (A") (A")
                 (A') (A") (A') (A') (A') (A') (A") (A') (A") (A")
                 (A") (A") (A') (A') (A') (A') (A') (A") (A') (A')
                 (A') (A') (A') (A') (A') (A') (A') (A') (A') (A')
                 (A') (A') (A') (A') (A') (A') (A') (A') (A') (A')
                 (A')
       Virtual   (A') (A') (A') (A') (A') (A') (A') (A') (A') (A')
                 (A') (A') (A') (A') (A') (A') (A') (A') (A') (A')
                 (A') (A') (A') (A') (A') (A') (A') (A') (A') (A')
                 (A') (A') (A') (A') (A') (A') (A') (A') (A') (A')
                 (A') (A') (A') (A') (A') (A') (A') (A') (A') (A')
                 (A') (A') (A') (A') (A') (A') (A') (A') (A') (A')
                 (A') (A') (A') (A') (A') (A') (A') (A') (A') (A')
                 (A') (A') (A') (A') (A') (A') (A') (A') (A') (A')
                 (A') (A') (A') (A') (A') (A') (A') (A') (A') (A')
                 (A') (A') (A') (A') (A') (A') (A') (A') (A') (A')
                 (A') (A') (A') (A') (A') (A') (A') (A') (A') (A')
                 (A') (A') (A') (A') (A') (A') (A') (A') (A') (A')
                 (A') (A') (A') (A') (A') (A') (A') (A') (A') (A')
                 (A') (A') (A') (A') (A') (A') (A') (A') (A') (A')
                 (A') (A') (A') (A') (A') (A') (A') (A') (A') (A')
                 (A') (A') (A') (A') (A") (A") (A") (A") (A") (A")
                 (A") (A") (A") (A") (A") (A") (A") (A") (A") (A")
                 (A") (A") (A") (A") (A") (A") (A") (A") (A") (A")
                 (A") (A") (A") (A") (A") (A") (A") (A") (A") (A")
                 (A") (A") (A") (A") (A") (A") (A") (A") (A") (A")
                 (A") (A") (A") (A") (A") (A") (A") (A") (A") (A")
                 (A") (A") (A") (A") (A") (A") (A") (A") (A")
 Beta  Orbitals:
       Occupied  (A') (A') (A') (A') (A') (A') (A') (A') (A') (A')
                 (A') (A') (A') (A') (A") (A') (A') (A") (A") (A")
                 (A") (A') (A') (A') (A') (A') (A") (A") (A") (A')
                 (A") (A") (A') (A') (A') (A') (A') (A") (A') (A')
                 (A') (A') (A') (A') (A') (A') (A') (A') (A') (A')
                 (A') (A') (A') (A') (A') (A') (A') (A') (A') (A')
       Virtual   (A') (A') (A') (A') (A') (A') (A') (A') (A') (A')
                 (A') (A') (A') (A') (A') (A') (A') (A') (A') (A')
                 (A') (A') (A') (A') (A') (A') (A') (A') (A') (A')
                 (A') (A') (A') (A') (A') (A') (A') (A') (A') (A')
                 (A') (A') (A') (A') (A') (A') (A') (A') (A') (A')
                 (A') (A') (A') (A') (A') (A') (A') (A') (A') (A')
                 (A') (A') (A') (A') (A') (A') (A') (A') (A') (A')
                 (A') (A') (A') (A') (A') (A') (A') (A') (A') (A')
                 (A') (A') (A') (A') (A') (A') (A') (A') (A') (A')
                 (A') (A') (A') (A') (A') (A') (A') (A') (A') (A')
                 (A') (A') (A') (A') (A') (A') (A') (A') (A') (A')
                 (A') (A') (A') (A') (A') (A') (A') (A') (A') (A')
                 (A') (A') (A') (A') (A') (A') (A') (A') (A') (A')
                 (A') (A') (A') (A') (A') (A') (A') (A') (A') (A')
                 (A') (A') (A') (A') (A') (A') (A') (A') (A') (A')
                 (A') (A') (A') (A') (A') (A") (A") (A") (A") (A")
                 (A") (A") (A") (A") (A") (A") (A") (A") (A") (A")
                 (A") (A") (A") (A") (A") (A") (A") (A") (A") (A")
                 (A") (A") (A") (A") (A") (A") (A") (A") (A") (A")
                 (A") (A") (A") (A") (A") (A") (A") (A") (A") (A")
                 (A") (A") (A") (A") (A") (A") (A") (A") (A") (A")
                 (A") (A") (A") (A") (A") (A") (A") (A") (A") (A")
 Initial guess <Sx>= 0.0000 <Sy>= 0.0000 <Sz>= 0.5000 <S**2>= 0.7500 S= 0.5000
 Requested convergence on RMS density matrix=1.00D-08 within 128 cycles.
 Requested convergence on MAX density matrix=1.00D-06.
 Requested convergence on             energy=1.00D-06.
 No special actions if energy rises.
 EnCoef did     5 forward-backward iterations
 EnCoef did     8 forward-backward iterations
 Restarting incremental Fock formation.
 SCF Done:  E(UM062X) =  -2529.48452024     A.U. after   29 cycles
            NFock= 29  Conv=0.39D-08     -V/T= 2.0022
 <Sx>= 0.0000 <Sy>= 0.0000 <Sz>= 0.5000 <S**2>= 0.7640 S= 0.5070
 <L.S>=  0.00000000000    
 Annihilation of the first spin contaminant:
 S**2 before annihilation     0.7640,   after     0.7501

 **********************************************************************

            Population analysis using the SCF Density.

 **********************************************************************

 Orbital symmetries:
 Alpha Orbitals:
       Occupied  (A') (A') (A') (A') (A') (A') (A') (A') (A') (A')
                 (A') (A') (A') (A') (A') (A') (A') (A') (A') (A')
                 (A') (A") (A") (A') (A') (A") (A") (A') (A') (A")
                 (A') (A') (A') (A') (A') (A') (A') (A') (A') (A')
                 (A') (A') (A') (A') (A") (A') (A') (A') (A") (A")
                 (A") (A') (A") (A') (A') (A') (A") (A') (A') (A")
                 (A")
       Virtual   (A") (A") (A') (A') (A') (A') (A') (A') (A") (A')
                 (A') (A') (A") (A") (A') (A') (A") (A') (A") (A')
                 (A') (A") (A') (A') (A') (A") (A") (A") (A') (A')
                 (A') (A') (A") (A') (A') (A') (A") (A') (A') (A')
                 (A') (A") (A') (A') (A') (A') (A') (A') (A') (A')
                 (A') (A') (A') (A') (A') (A') (A") (A') (A") (A')
                 (A") (A') (A') (A') (A') (A") (A') (A") (A') (A')
                 (A") (A') (A") (A") (A') (A") (A") (A') (A') (A')
                 (A') (A") (A') (A') (A") (A') (A") (A') (A") (A')
                 (A') (A') (A") (A') (A") (A') (A") (A") (A') (A")
                 (A') (A") (A') (A') (A') (A') (A') (A') (A') (A")
                 (A') (A') (A') (A") (A') (A') (A') (A') (A') (A")
                 (A') (A') (A') (A") (A") (A') (A') (A') (A") (A")
                 (A') (A') (A') (A') (A') (A') (A") (A") (A') (A')
                 (A') (A") (A') (A") (A") (A') (A') (A') (A') (A")
                 (A") (A') (A") (A") (A") (A') (A") (A') (A') (A')
                 (A') (A') (A') (A') (A') (A') (A') (A") (A') (A')
                 (A") (A") (A") (A") (A') (A') (A") (A') (A') (A')
                 (A') (A') (A') (A') (A') (A') (A') (A') (A') (A')
                 (A') (A') (A') (A') (A') (A') (A') (A') (A') (A")
                 (A") (A") (A") (A") (A') (A') (A') (A') (A') (A')
                 (A') (A') (A') (A') (A') (A') (A') (A') (A')
 Beta  Orbitals:
       Occupied  (A') (A') (A') (A') (A') (A') (A') (A') (A') (A')
                 (A') (A') (A') (A') (A') (A') (A') (A') (A') (A')
                 (A') (A") (A") (A') (A') (A") (A") (A') (A') (A")
                 (A') (A') (A') (A') (A') (A') (A') (A') (A') (A')
                 (A') (A') (A') (A') (A") (A') (A') (A') (A") (A")
                 (A") (A") (A') (A') (A') (A') (A") (A') (A") (A")
       Virtual   (A') (A") (A") (A') (A') (A') (A') (A') (A') (A")
                 (A') (A') (A') (A") (A") (A') (A') (A") (A') (A")
                 (A') (A') (A") (A') (A') (A') (A") (A') (A") (A')
                 (A") (A') (A') (A") (A') (A') (A') (A") (A') (A')
                 (A') (A') (A") (A') (A') (A') (A') (A') (A') (A')
                 (A') (A') (A') (A') (A') (A') (A') (A') (A") (A")
                 (A') (A") (A') (A') (A') (A') (A") (A') (A") (A')
                 (A') (A") (A') (A') (A") (A") (A") (A") (A') (A')
                 (A') (A') (A") (A') (A') (A") (A') (A") (A') (A")
                 (A') (A') (A') (A") (A') (A") (A') (A') (A") (A")
                 (A") (A') (A") (A') (A') (A') (A') (A') (A') (A')
                 (A") (A') (A') (A') (A") (A') (A') (A') (A') (A')
                 (A') (A") (A') (A') (A") (A") (A') (A') (A') (A")
                 (A") (A') (A') (A') (A') (A') (A') (A") (A") (A')
                 (A') (A') (A") (A') (A") (A") (A') (A') (A') (A')
                 (A") (A") (A') (A") (A") (A") (A') (A") (A') (A')
                 (A') (A') (A') (A') (A') (A') (A') (A') (A") (A')
                 (A') (A") (A") (A") (A") (A') (A') (A") (A') (A')
                 (A') (A') (A') (A') (A') (A') (A') (A') (A') (A')
                 (A') (A') (A') (A') (A') (A') (A') (A') (A') (A')
                 (A") (A") (A") (A") (A") (A') (A') (A') (A') (A')
                 (A') (A') (A') (A') (A') (A') (A') (A') (A') (A')
 The electronic state is 2-A'.
 Alpha  occ. eigenvalues -- -102.71027-102.71027-102.70869-102.70869-102.70609
 Alpha  occ. eigenvalues --  -10.65798 -10.65790 -10.65553 -10.65402 -10.65402
 Alpha  occ. eigenvalues --  -10.62180  -9.85354  -9.85354  -9.85207  -9.85207
 Alpha  occ. eigenvalues --   -9.84959  -7.57924  -7.57924  -7.57748  -7.57748
 Alpha  occ. eigenvalues --   -7.57491  -7.57164  -7.57164  -7.57156  -7.57156
 Alpha  occ. eigenvalues --   -7.57041  -7.57041  -7.57003  -7.57003  -7.56776
 Alpha  occ. eigenvalues --   -7.56749  -1.08570  -1.04445  -1.02744  -0.99685
 Alpha  occ. eigenvalues --   -0.97938  -0.94288  -0.84473  -0.83805  -0.71647
 Alpha  occ. eigenvalues --   -0.71560  -0.63652  -0.60811  -0.56776  -0.55295
 Alpha  occ. eigenvalues --   -0.55031  -0.52849  -0.51161  -0.49150  -0.47689
 Alpha  occ. eigenvalues --   -0.43946  -0.43371  -0.42778  -0.42301  -0.41349
 Alpha  occ. eigenvalues --   -0.41188  -0.39313  -0.38518  -0.35658  -0.32686
 Alpha  occ. eigenvalues --   -0.31243
 Alpha virt. eigenvalues --   -0.03408  -0.02827  -0.00044   0.01719   0.01831
 Alpha virt. eigenvalues --    0.02820   0.04040   0.04432   0.04764   0.05730
 Alpha virt. eigenvalues --    0.06099   0.06334   0.07103   0.07268   0.08690
 Alpha virt. eigenvalues --    0.08802   0.09956   0.10068   0.10189   0.10511
 Alpha virt. eigenvalues --    0.10915   0.10926   0.12298   0.12853   0.13110
 Alpha virt. eigenvalues --    0.13534   0.15224   0.15587   0.15635   0.15757
 Alpha virt. eigenvalues --    0.15868   0.16282   0.16901   0.17921   0.18580
 Alpha virt. eigenvalues --    0.19405   0.19738   0.21297   0.21705   0.22438
 Alpha virt. eigenvalues --    0.22890   0.23607   0.23807   0.24295   0.25402
 Alpha virt. eigenvalues --    0.26656   0.27169   0.27291   0.28615   0.28693
 Alpha virt. eigenvalues --    0.29197   0.30004   0.30605   0.32103   0.40579
 Alpha virt. eigenvalues --    0.41373   0.43392   0.43770   0.45543   0.45543
 Alpha virt. eigenvalues --    0.46915   0.48508   0.48591   0.49419   0.49588
 Alpha virt. eigenvalues --    0.49721   0.49739   0.50855   0.51435   0.52586
 Alpha virt. eigenvalues --    0.53226   0.55792   0.59388   0.60261   0.60504
 Alpha virt. eigenvalues --    0.62345   0.63245   0.63758   0.65352   0.65616
 Alpha virt. eigenvalues --    0.66251   0.68353   0.68645   0.70243   0.75530
 Alpha virt. eigenvalues --    0.77638   0.82070   0.84350   0.85712   0.86607
 Alpha virt. eigenvalues --    0.86757   0.86916   0.87601   0.88527   0.88717
 Alpha virt. eigenvalues --    0.89215   0.90379   0.90399   0.90474   0.92239
 Alpha virt. eigenvalues --    0.93613   0.93768   0.94172   0.96035   0.96151
 Alpha virt. eigenvalues --    0.96916   0.97188   0.98235   0.99098   1.00459
 Alpha virt. eigenvalues --    1.02251   1.03199   1.05535   1.06699   1.06827
 Alpha virt. eigenvalues --    1.11217   1.15709   1.20926   1.22340   1.24311
 Alpha virt. eigenvalues --    1.25814   1.27082   1.28112   1.30965   1.32268
 Alpha virt. eigenvalues --    1.33016   1.33152   1.34282   1.35250   1.36287
 Alpha virt. eigenvalues --    1.46532   1.47177   1.48801   1.54899   1.70778
 Alpha virt. eigenvalues --    1.70820   1.76730   1.79419   1.79714   1.79970
 Alpha virt. eigenvalues --    1.83202   1.84745   1.86133   1.91514   1.97464
 Alpha virt. eigenvalues --    2.10116   2.11393   2.19553   2.21967   2.25213
 Alpha virt. eigenvalues --    2.25976   2.27087   2.27190   2.28315   2.30575
 Alpha virt. eigenvalues --    2.33678   2.34303   2.34439   2.39940   2.40965
 Alpha virt. eigenvalues --    2.42493   2.48580   2.48802   2.49427   2.51481
 Alpha virt. eigenvalues --    2.56233   2.58912   2.64374   2.65772   2.66211
 Alpha virt. eigenvalues --    2.77861   2.80133   2.88816   2.91259   2.91371
 Alpha virt. eigenvalues --    3.03253   3.08697   3.10701   3.19766   3.20907
 Alpha virt. eigenvalues --    3.25565   3.30041   3.47476   3.61000   3.70504
 Alpha virt. eigenvalues --    3.92414   3.94109   4.73796   9.88418   9.97416
 Alpha virt. eigenvalues --    9.98643  10.00390  10.01202  23.29911  23.80323
 Alpha virt. eigenvalues --   23.84133  23.95582  23.95735  24.14087  25.85273
 Alpha virt. eigenvalues --   25.88356  25.91278  25.94630  26.00982  26.14020
 Alpha virt. eigenvalues --   26.15630  26.21893  26.26721  26.36718  26.43634
 Alpha virt. eigenvalues --   26.63429  26.73851  26.89119  27.02541 215.97635
 Alpha virt. eigenvalues --  216.07693 216.09151 216.11328 216.12319
  Beta  occ. eigenvalues -- -102.70993-102.70993-102.70846-102.70846-102.70616
  Beta  occ. eigenvalues --  -10.65731 -10.65716 -10.65582 -10.65448 -10.65447
  Beta  occ. eigenvalues --  -10.61179  -9.85341  -9.85340  -9.85198  -9.85198
  Beta  occ. eigenvalues --   -9.84962  -7.57843  -7.57843  -7.57709  -7.57709
  Beta  occ. eigenvalues --   -7.57491  -7.57171  -7.57171  -7.57124  -7.57124
  Beta  occ. eigenvalues --   -7.57025  -7.57025  -7.56984  -7.56984  -7.56799
  Beta  occ. eigenvalues --   -7.56751  -1.08221  -1.04274  -1.02409  -0.99525
  Beta  occ. eigenvalues --   -0.97809  -0.93550  -0.83493  -0.83115  -0.71295
  Beta  occ. eigenvalues --   -0.70161  -0.63013  -0.60121  -0.56275  -0.54976
  Beta  occ. eigenvalues --   -0.54795  -0.52396  -0.50781  -0.49146  -0.47424
  Beta  occ. eigenvalues --   -0.43923  -0.42750  -0.42404  -0.42259  -0.41060
  Beta  occ. eigenvalues --   -0.40915  -0.38754  -0.38453  -0.31664  -0.31301
  Beta virt. eigenvalues --   -0.10287  -0.03465  -0.01742   0.00126   0.01209
  Beta virt. eigenvalues --    0.01840   0.03129   0.04020   0.04236   0.04640
  Beta virt. eigenvalues --    0.05016   0.06134   0.06413   0.06877   0.07095
  Beta virt. eigenvalues --    0.08688   0.08772   0.09749   0.10127   0.10153
  Beta virt. eigenvalues --    0.10387   0.10619   0.11049   0.12294   0.12849
  Beta virt. eigenvalues --    0.13447   0.13599   0.15544   0.15550   0.15566
  Beta virt. eigenvalues --    0.15618   0.16039   0.16316   0.16909   0.17910
  Beta virt. eigenvalues --    0.18162   0.19300   0.19582   0.21259   0.21609
  Beta virt. eigenvalues --    0.21990   0.22693   0.23481   0.23788   0.24512
  Beta virt. eigenvalues --    0.25488   0.25886   0.27240   0.27354   0.28603
  Beta virt. eigenvalues --    0.28976   0.29524   0.29830   0.30541   0.32754
  Beta virt. eigenvalues --    0.40598   0.41747   0.42820   0.43407   0.45551
  Beta virt. eigenvalues --    0.45800   0.46997   0.48594   0.48618   0.49377
  Beta virt. eigenvalues --    0.49653   0.49746   0.49879   0.50844   0.51445
  Beta virt. eigenvalues --    0.52114   0.53412   0.53817   0.58337   0.59647
  Beta virt. eigenvalues --    0.60283   0.62272   0.63241   0.64080   0.65275
  Beta virt. eigenvalues --    0.66420   0.67653   0.68220   0.69310   0.69474
  Beta virt. eigenvalues --    0.75695   0.77873   0.82141   0.84476   0.85762
  Beta virt. eigenvalues --    0.86500   0.86822   0.87004   0.87631   0.88503
  Beta virt. eigenvalues --    0.88861   0.89300   0.90333   0.90397   0.90448
  Beta virt. eigenvalues --    0.92322   0.93603   0.93887   0.94580   0.95788
  Beta virt. eigenvalues --    0.96157   0.97072   0.97248   0.97835   0.99322
  Beta virt. eigenvalues --    1.00954   1.01970   1.03104   1.05194   1.07175
  Beta virt. eigenvalues --    1.07740   1.11189   1.15508   1.20806   1.22465
  Beta virt. eigenvalues --    1.25026   1.26123   1.27518   1.27709   1.31161
  Beta virt. eigenvalues --    1.32974   1.33009   1.33199   1.34033   1.35753
  Beta virt. eigenvalues --    1.36353   1.46417   1.47599   1.49537   1.57638
  Beta virt. eigenvalues --    1.71034   1.71306   1.77490   1.79369   1.80077
  Beta virt. eigenvalues --    1.80563   1.83851   1.84814   1.86990   1.92315
  Beta virt. eigenvalues --    1.97907   2.11142   2.11564   2.19564   2.22617
  Beta virt. eigenvalues --    2.25227   2.26013   2.27180   2.27599   2.28331
  Beta virt. eigenvalues --    2.30653   2.33704   2.34336   2.34978   2.39896
  Beta virt. eigenvalues --    2.40992   2.42954   2.48939   2.49011   2.49840
  Beta virt. eigenvalues --    2.52104   2.56664   2.58978   2.64505   2.65913
  Beta virt. eigenvalues --    2.66350   2.78386   2.80151   2.89073   2.91063
  Beta virt. eigenvalues --    2.93065   3.05783   3.08744   3.10950   3.19788
  Beta virt. eigenvalues --    3.20908   3.25774   3.30480   3.47986   3.61087
  Beta virt. eigenvalues --    3.70880   3.93165   3.94254   4.74024   9.88429
  Beta virt. eigenvalues --    9.97422   9.98648  10.00398  10.01205  23.30027
  Beta virt. eigenvalues --   23.80454  23.84172  23.95602  23.95741  24.14960
  Beta virt. eigenvalues --   25.85284  25.88381  25.91253  25.94657  26.00990
  Beta virt. eigenvalues --   26.14083  26.15673  26.21960  26.26763  26.36748
  Beta virt. eigenvalues --   26.43720  26.63598  26.73962  26.89275  27.02609
  Beta virt. eigenvalues --  215.97664 216.07738 216.09185 216.11371 216.12333
          Condensed to atoms (all electrons):
               1          2          3          4          5          6
     1  C   19.348168   0.527107  -7.332705   1.882391  -7.332704   0.527119
     2  C    0.527107  17.724550  -4.466148  -3.242656   2.131718  -4.723737
     3  C   -7.332705  -4.466148  18.460260  -0.932439  -1.732292   2.131714
     4  C    1.882391  -3.242656  -0.932439  13.175363  -0.932437  -3.242655
     5  C   -7.332704   2.131718  -1.732292  -0.932437  18.460259  -4.466155
     6  C    0.527119  -4.723737   2.131714  -3.242655  -4.466155  17.724549
     7  Cl  -0.283114  -0.443898   0.323370  -0.170541   0.205850  -0.437182
     8  Cl  -0.283116  -0.437183   0.205852  -0.170541   0.323370  -0.443898
     9  Cl  -0.321989  -0.648862  -0.231235   0.407838  -0.323126   0.421396
    10  Cl   0.430155  -0.091184  -0.044733  -0.872537  -0.044734  -0.091185
    11  Cl  -0.321990   0.421395  -0.323127   0.407837  -0.231232  -0.648863
               7          8          9         10         11
     1  C   -0.283114  -0.283116  -0.321989   0.430155  -0.321990
     2  C   -0.443898  -0.437183  -0.648862  -0.091184   0.421395
     3  C    0.323370   0.205852  -0.231235  -0.044733  -0.323127
     4  C   -0.170541  -0.170541   0.407838  -0.872537   0.407837
     5  C    0.205850   0.323370  -0.323126  -0.044734  -0.231232
     6  C   -0.437182  -0.443898   0.421396  -0.091185  -0.648863
     7  Cl  17.602316  -0.034314  -0.001548   0.015600  -0.301472
     8  Cl  -0.034314  17.602316  -0.301472   0.015600  -0.001548
     9  Cl  -0.001548  -0.301472  17.778689  -0.358837   0.013786
    10  Cl   0.015600   0.015600  -0.358837  17.813099  -0.358837
    11  Cl  -0.301472  -0.001548   0.013786  -0.358837  17.778689
          Atomic-Atomic Spin Densities.
               1          2          3          4          5          6
     1  C    1.135018   0.069974  -0.384881   0.309746  -0.384880   0.069974
     2  C    0.069974  -0.259123  -0.080599  -0.186846   0.146745   0.319057
     3  C   -0.384881  -0.080599   0.505055  -0.288075   0.230552   0.146745
     4  C    0.309746  -0.186846  -0.288075   0.563794  -0.288075  -0.186846
     5  C   -0.384880   0.146745   0.230552  -0.288075   0.505054  -0.080598
     6  C    0.069974   0.319057   0.146745  -0.186846  -0.080598  -0.259123
     7  Cl  -0.033494  -0.020806  -0.016798   0.059151   0.051947  -0.052158
     8  Cl  -0.033494  -0.052159   0.051947   0.059151  -0.016798  -0.020806
     9  Cl  -0.023641   0.098461  -0.065187  -0.101256   0.043235   0.029458
    10  Cl   0.000723  -0.034640  -0.006840   0.085955  -0.006840  -0.034640
    11  Cl  -0.023641   0.029458   0.043235  -0.101256  -0.065187   0.098461
               7          8          9         10         11
     1  C   -0.033494  -0.033494  -0.023641   0.000723  -0.023641
     2  C   -0.020806  -0.052159   0.098461  -0.034640   0.029458
     3  C   -0.016798   0.051947  -0.065187  -0.006840   0.043235
     4  C    0.059151   0.059151  -0.101256   0.085955  -0.101256
     5  C    0.051947  -0.016798   0.043235  -0.006840  -0.065187
     6  C   -0.052158  -0.020806   0.029458  -0.034640   0.098461
     7  Cl   0.054168   0.003695  -0.002302   0.005103  -0.039209
     8  Cl   0.003695   0.054168  -0.039209   0.005103  -0.002302
     9  Cl  -0.002302  -0.039209   0.081333  -0.011726   0.005373
    10  Cl   0.005103   0.005103  -0.011726   0.005647  -0.011726
    11  Cl  -0.039209  -0.002302   0.005373  -0.011726   0.081333
 Mulliken charges and spin densities:
               1          2
     1  C   -0.839323   0.701404
     2  C   -0.751102   0.029524
     3  C   -0.058518   0.135155
     4  C   -0.309622  -0.074558
     5  C   -0.058517   0.135155
     6  C   -0.751103   0.029524
     7  Cl   0.524934   0.009299
     8  Cl   0.524934   0.009299
     9  Cl   0.565362   0.014539
    10  Cl   0.587593  -0.003879
    11  Cl   0.565362   0.014539
 Sum of Mulliken charges =  -0.00000   1.00000
 Mulliken charges and spin densities with hydrogens summed into heavy atoms:
               1          2
     1  C   -0.839323   0.701404
     2  C   -0.751102   0.029524
     3  C   -0.058518   0.135155
     4  C   -0.309622  -0.074558
     5  C   -0.058517   0.135155
     6  C   -0.751103   0.029524
     7  Cl   0.524934   0.009299
     8  Cl   0.524934   0.009299
     9  Cl   0.565362   0.014539
    10  Cl   0.587593  -0.003879
    11  Cl   0.565362   0.014539
 Electronic spatial extent (au):  <R**2>=           3317.0029
 Charge=             -0.0000 electrons
 Dipole moment (field-independent basis, Debye):
    X=              0.0000    Y=              0.1478    Z=              0.0000  Tot=              0.1478
 Quadrupole moment (field-independent basis, Debye-Ang):
   XX=            -94.9010   YY=            -95.7403   ZZ=            -97.2028
   XY=              0.0000   XZ=              0.0000   YZ=              0.0000
 Traceless Quadrupole moment (field-independent basis, Debye-Ang):
   XX=              1.0471   YY=              0.2077   ZZ=             -1.2548
   XY=              0.0000   XZ=              0.0000   YZ=              0.0000
 Octapole moment (field-independent basis, Debye-Ang**2):
  XXX=              0.0000  YYY=            -15.0123  ZZZ=              0.0000  XYY=              0.0000
  XXY=             -1.5068  XXZ=              0.0000  XZZ=              0.0000  YZZ=             -2.7757
  YYZ=              0.0000  XYZ=              0.0000
 Hexadecapole moment (field-independent basis, Debye-Ang**3):
 XXXX=          -2345.2959 YYYY=          -1640.4076 ZZZZ=           -111.1180 XXXY=              0.0000
 XXXZ=              0.0000 YYYX=              0.0000 YYYZ=              0.0000 ZZZX=              0.0000
 ZZZY=              0.0000 XXYY=           -645.2868 XXZZ=           -435.8931 YYZZ=           -305.5924
 XXYZ=              0.0000 YYXZ=              0.0000 ZZXY=              0.0000
 N-N= 1.062829261341D+03 E-N=-8.124741650962D+03  KE= 2.524030261560D+03
 Symmetry A'   KE= 2.287739530933D+03
 Symmetry A"   KE= 2.362907306271D+02
 Symmetry A'   SP= 9.999999999998D-01
 Symmetry A"   SP=-7.441167924487D-14
                          Isotropic Fermi Contact Couplings
        Atom                 a.u.       MegaHertz       Gauss      10(-4) cm-1
     1  C(13)              0.45253     508.73088     181.52783     169.69436
     2  C(13)             -0.01531     -17.20825      -6.14033      -5.74006
     3  C(13)              0.05187      58.31395      20.80787      19.45144
     4  C(13)             -0.00974     -10.95367      -3.90854      -3.65375
     5  C(13)              0.05187      58.31390      20.80785      19.45142
     6  C(13)             -0.01531     -17.20825      -6.14033      -5.74006
     7  Cl(35)             0.01624       7.11892       2.54021       2.37462
     8  Cl(35)             0.01624       7.11891       2.54020       2.37461
     9  Cl(35)             0.00463       2.03101       0.72472       0.67747
    10  Cl(35)             0.00037       0.16159       0.05766       0.05390
    11  Cl(35)             0.00463       2.03101       0.72472       0.67747
 --------------------------------------------------------
       Center         ----  Spin Dipole Couplings  ----
                      3XX-RR        3YY-RR        3ZZ-RR
 --------------------------------------------------------
     1   Atom       -0.575923      0.963639     -0.387716
     2   Atom        0.089875      0.013159     -0.103034
     3   Atom       -0.029548      0.023976      0.005572
     4   Atom        0.020227      0.037305     -0.057532
     5   Atom       -0.029548      0.023976      0.005572
     6   Atom        0.089875      0.013159     -0.103034
     7   Atom        0.232924     -0.077403     -0.155521
     8   Atom        0.232924     -0.077403     -0.155521
     9   Atom       -0.036382      0.068755     -0.032373
    10   Atom        0.019708      0.030717     -0.050424
    11   Atom       -0.036382      0.068755     -0.032373
 --------------------------------------------------------
                        XY            XZ            YZ
 --------------------------------------------------------
     1   Atom       -0.000000      0.000000      0.000000
     2   Atom       -0.054685      0.000000      0.000000
     3   Atom       -0.001127      0.000000      0.000000
     4   Atom        0.000000      0.000000      0.000000
     5   Atom        0.001127      0.000000      0.000000
     6   Atom        0.054684      0.000000      0.000000
     7   Atom       -0.032386      0.000000      0.000000
     8   Atom        0.032386      0.000000      0.000000
     9   Atom       -0.076293      0.000000      0.000000
    10   Atom        0.000000      0.000000      0.000000
    11   Atom        0.076293      0.000000      0.000000
 --------------------------------------------------------


 ---------------------------------------------------------------------------------
              Anisotropic Spin Dipole Couplings in Principal Axis System
 ---------------------------------------------------------------------------------

       Atom             a.u.   MegaHertz   Gauss  10(-4) cm-1        Axes

              Baa    -0.5759   -77.283   -27.577   -25.779  1.0000  0.0000  0.0000
     1 C(13)  Bbb    -0.3877   -52.028   -18.565   -17.355  0.0000  0.0000  1.0000
              Bcc     0.9636   129.311    46.141    43.134 -0.0000  1.0000  0.0000
 
              Baa    -0.1030   -13.826    -4.934    -4.612  0.0000  0.0000  1.0000
     2 C(13)  Bbb    -0.0153    -2.050    -0.732    -0.684  0.4614  0.8872  0.0000
              Bcc     0.1183    15.877     5.665     5.296  0.8872 -0.4614 -0.0000
 
              Baa    -0.0296    -3.968    -1.416    -1.324  0.9998  0.0210  0.0000
     3 C(13)  Bbb     0.0056     0.748     0.267     0.249  0.0000  0.0000  1.0000
              Bcc     0.0240     3.221     1.149     1.074 -0.0210  0.9998 -0.0000
 
              Baa    -0.0575    -7.720    -2.755    -2.575  0.0000  0.0000  1.0000
     4 C(13)  Bbb     0.0202     2.714     0.969     0.905  1.0000 -0.0000 -0.0000
              Bcc     0.0373     5.006     1.786     1.670  0.0000  1.0000  0.0000
 
              Baa    -0.0296    -3.968    -1.416    -1.324  0.9998 -0.0210 -0.0000
     5 C(13)  Bbb     0.0056     0.748     0.267     0.249  0.0000  0.0000  1.0000
              Bcc     0.0240     3.221     1.149     1.074  0.0210  0.9998  0.0000
 
              Baa    -0.1030   -13.826    -4.934    -4.612  0.0000  0.0000  1.0000
     6 C(13)  Bbb    -0.0153    -2.050    -0.732    -0.684 -0.4614  0.8872 -0.0000
              Bcc     0.1183    15.877     5.665     5.296  0.8872  0.4614  0.0000
 
              Baa    -0.1555    -8.140    -2.904    -2.715  0.0000  0.0000  1.0000
     7 Cl(35) Bbb    -0.0807    -4.226    -1.508    -1.410  0.1027  0.9947  0.0000
              Bcc     0.2363    12.366     4.412     4.125  0.9947 -0.1027 -0.0000
 
              Baa    -0.1555    -8.140    -2.904    -2.715  0.0000  0.0000  1.0000
     8 Cl(35) Bbb    -0.0807    -4.226    -1.508    -1.410 -0.1027  0.9947 -0.0000
              Bcc     0.2363    12.366     4.412     4.125  0.9947  0.1027  0.0000
 
              Baa    -0.0765    -4.002    -1.428    -1.335  0.8853  0.4651  0.0000
     9 Cl(35) Bbb    -0.0324    -1.694    -0.605    -0.565  0.0000  0.0000  1.0000
              Bcc     0.1088     5.696     2.033     1.900 -0.4651  0.8853  0.0000
 
              Baa    -0.0504    -2.639    -0.942    -0.880  0.0000  0.0000  1.0000
    10 Cl(35) Bbb     0.0197     1.031     0.368     0.344  1.0000 -0.0000 -0.0000
              Bcc     0.0307     1.608     0.574     0.536  0.0000  1.0000  0.0000
 
              Baa    -0.0765    -4.002    -1.428    -1.335  0.8853 -0.4651 -0.0000
    11 Cl(35) Bbb    -0.0324    -1.694    -0.605    -0.565  0.0000  0.0000  1.0000
              Bcc     0.1088     5.696     2.033     1.900  0.4651  0.8853  0.0000
 

 ---------------------------------------------------------------------------------

 Calling FoFJK, ICntrl=      2127 FMM=F ISym2X=1 I1Cent= 0 IOpClX= 1 NMat=1 NMatS=1 NMatT=0.
 ***** Axes restored to original set *****
 -------------------------------------------------------------------
 Center     Atomic                   Forces (Hartrees/Bohr)
 Number     Number              X              Y              Z
 -------------------------------------------------------------------
      1        6          -0.004340216    0.002349356   -0.000000000
      2        6           0.008422049   -0.042703816   -0.000000000
      3        6          -0.026801912   -0.011832734   -0.000000000
      4        6          -0.022418599    0.012134983   -0.000000000
      5        6          -0.004747776    0.028910494   -0.000000000
      6        6           0.040359587    0.016298580   -0.000000000
      7       17          -0.021011468   -0.011110872   -0.000000000
      8       17          -0.002186129    0.023667588   -0.000000000
      9       17           0.016573172    0.010430854   -0.000000000
     10       17           0.015822649   -0.008564721   -0.000000000
     11       17           0.000328644   -0.019579714   -0.000000000
 -------------------------------------------------------------------
 Cartesian Forces:  Max     0.042703816 RMS     0.015954987

 GradGradGradGradGradGradGradGradGradGradGradGradGradGradGradGradGradGrad
 Berny optimization.
 FormGI is forming the generalized inverse of G from B-inverse, IUseBI=4.
 Internal  Forces:  Max     0.023766049 RMS     0.008038855
 Search for a local minimum.
 Step number   1 out of a maximum of   57
 All quantities printed in internal units (Hartrees-Bohrs-Radians)
 Mixed Optimization -- RFO/linear search
 Second derivative matrix not updated -- first step.
 ITU=  0
     Eigenvalues ---    0.01839   0.01843   0.01858   0.01873   0.01902
     Eigenvalues ---    0.01997   0.02049   0.02350   0.25000   0.25000
     Eigenvalues ---    0.25000   0.25000   0.25000   0.25000   0.25000
     Eigenvalues ---    0.25000   0.37096   0.37885   0.37885   0.38791
     Eigenvalues ---    0.38791   0.39849   0.41070   0.42346   0.42914
     Eigenvalues ---    0.48626   0.50002
 RFO step:  Lambda=-7.80873189D-03 EMin= 1.83887553D-02
 Linear search not attempted -- first point.
 Iteration  1 RMS(Cart)=  0.01370854 RMS(Int)=  0.00011171
 Iteration  2 RMS(Cart)=  0.00013177 RMS(Int)=  0.00002478
 Iteration  3 RMS(Cart)=  0.00000002 RMS(Int)=  0.00002478
 ClnCor:  largest displacement from symmetrization is 1.01D-08 for atom    11.
 Variable       Old X    -DE/DX   Delta X   Delta X   Delta X     New X
                                 (Linear)    (Quad)   (Total)
    R1        2.59464  -0.00882   0.00000  -0.01734  -0.01730   2.57734
    R2        2.59464  -0.00882   0.00000  -0.01734  -0.01730   2.57734
    R3        2.68485  -0.01209   0.00000  -0.02803  -0.02803   2.65682
    R4        3.16929   0.02377   0.00000   0.06006   0.06006   3.22935
    R5        2.67639  -0.00965   0.00000  -0.02192  -0.02196   2.65444
    R6        3.18233   0.01958   0.00000   0.05064   0.05064   3.23297
    R7        2.67639  -0.00965   0.00000  -0.02192  -0.02196   2.65444
    R8        3.19402   0.01799   0.00000   0.04750   0.04750   3.24152
    R9        2.68485  -0.01209   0.00000  -0.02803  -0.02803   2.65682
   R10        3.18233   0.01958   0.00000   0.05064   0.05064   3.23297
   R11        3.16930   0.02377   0.00000   0.06006   0.06006   3.22935
    A1        2.26099  -0.00895   0.00000  -0.03519  -0.03510   2.22589
    A2        2.00734   0.00560   0.00000   0.02154   0.02157   2.02890
    A3        2.12693  -0.00332   0.00000  -0.01280  -0.01281   2.11412
    A4        2.14892  -0.00228   0.00000  -0.00874  -0.00876   2.14016
    A5        2.08359  -0.00002   0.00000   0.00013   0.00009   2.08369
    A6        2.09126  -0.00034   0.00000  -0.00143  -0.00141   2.08985
    A7        2.10833   0.00036   0.00000   0.00130   0.00132   2.10965
    A8        2.12353  -0.00220   0.00000  -0.00815  -0.00822   2.11531
    A9        2.07983   0.00110   0.00000   0.00407   0.00411   2.08394
   A10        2.07983   0.00110   0.00000   0.00407   0.00411   2.08394
   A11        2.08359  -0.00002   0.00000   0.00013   0.00009   2.08369
   A12        2.10833   0.00036   0.00000   0.00130   0.00132   2.10965
   A13        2.09126  -0.00034   0.00000  -0.00143  -0.00141   2.08985
   A14        2.00734   0.00560   0.00000   0.02154   0.02157   2.02890
   A15        2.12693  -0.00332   0.00000  -0.01280  -0.01281   2.11412
   A16        2.14892  -0.00228   0.00000  -0.00874  -0.00876   2.14016
    D1        0.00000   0.00000   0.00000   0.00000   0.00000   0.00000
    D2        3.14159   0.00000   0.00000  -0.00000   0.00000   3.14159
    D3        0.00000  -0.00000   0.00000  -0.00000   0.00000   0.00000
    D4        3.14159   0.00000   0.00000   0.00000   0.00000   3.14159
    D5        0.00000  -0.00000   0.00000  -0.00000   0.00000   0.00000
    D6        3.14159  -0.00000   0.00000  -0.00000   0.00000   3.14159
    D7        3.14159  -0.00000   0.00000  -0.00000   0.00000   3.14159
    D8        0.00000  -0.00000   0.00000  -0.00000   0.00000   0.00000
    D9        0.00000   0.00000   0.00000   0.00000   0.00000   0.00000
   D10        3.14159   0.00000   0.00000   0.00000   0.00000   3.14159
   D11        3.14159   0.00000   0.00000   0.00000   0.00000   3.14159
   D12        0.00000   0.00000   0.00000   0.00000   0.00000   0.00000
   D13        0.00000   0.00000   0.00000   0.00000   0.00000   0.00000
   D14        3.14159   0.00000   0.00000   0.00000   0.00000   3.14159
   D15        3.14159   0.00000   0.00000  -0.00000   0.00000   3.14159
   D16        0.00000   0.00000   0.00000   0.00000   0.00000   0.00000
   D17        0.00000  -0.00000   0.00000  -0.00000   0.00000   0.00000
   D18        3.14159  -0.00000   0.00000  -0.00000   0.00000   3.14159
   D19        3.14159  -0.00000   0.00000  -0.00000   0.00000   3.14159
   D20        0.00000  -0.00000   0.00000  -0.00000   0.00000   0.00000
         Item               Value     Threshold  Converged?
 Maximum Force            0.023766     0.000450     NO 
 RMS     Force            0.008039     0.000300     NO 
 Maximum Displacement     0.038630     0.001800     NO 
 RMS     Displacement     0.013725     0.001200     NO 
 Predicted change in Energy=-3.984389D-03
 GradGradGradGradGradGradGradGradGradGradGradGradGradGradGradGradGradGrad

                          Input orientation:                          
 ---------------------------------------------------------------------
 Center     Atomic      Atomic             Coordinates (Angstroms)
 Number     Number       Type             X           Y           Z
 ---------------------------------------------------------------------
      1          6           0       -3.111396    0.146447    0.000000
      2          6           0       -1.998849    0.935358    0.000000
      3          6           0       -0.762266    0.266410    0.000000
      4          6           0       -0.738375   -1.138055    0.000000
      5          6           0       -1.927353   -1.886002    0.000000
      6          6           0       -3.163596   -1.216424    0.000000
      7         17           0       -4.659149   -2.043262    0.000000
      8         17           0       -2.124320    2.639645    0.000000
      9         17           0        0.690975    1.169170    0.000000
     10         17           0        0.770145   -1.954609    0.000000
     11         17           0       -1.888586   -3.596377    0.000000
 ---------------------------------------------------------------------
                    Distance matrix (angstroms):
                    1          2          3          4          5
     1  C    0.000000
     2  C    1.363870   0.000000
     3  C    2.352191   1.405927   0.000000
     4  C    2.698365   2.426487   1.404668   0.000000
     5  C    2.352192   2.822265   2.447510   1.404668   0.000000
     6  C    1.363870   2.446794   2.822265   2.426486   1.405927
     7  Cl   2.681484   3.993666   4.529931   4.023911   2.736318
     8  Cl   2.681484   1.708900   2.736318   4.023911   4.529931
     9  Cl   3.937510   2.699967   1.710814   2.714098   4.023645
    10  Cl   4.413706   4.002404   2.698371   1.715340   2.698371
    11  Cl   3.937510   4.533075   4.023645   2.714098   1.710814
                    6          7          8          9         10
     6  C    0.000000
     7  Cl   1.708900   0.000000
     8  Cl   3.993666   5.324939   0.000000
     9  Cl   4.533075   6.240475   3.176189   0.000000
    10  Cl   4.002404   5.430018   5.430018   3.124781   0.000000
    11  Cl   2.699967   3.176190   6.240476   5.418908   3.124781
                   11
    11  Cl   0.000000
 Stoichiometry    C6Cl5(2)
 Framework group  CS[SG(C6Cl5)]
 Deg. of freedom    19
 Full point group                 CS      NOp   2
 Largest Abelian subgroup         CS      NOp   2
 Largest concise Abelian subgroup C1      NOp   1
                         Standard orientation:                         
 ---------------------------------------------------------------------
 Center     Atomic      Atomic             Coordinates (Angstroms)
 Number     Number       Type             X           Y           Z
 ---------------------------------------------------------------------
      1          6           0       -1.726158    0.000000    0.000000
      2          6           0       -1.123296    1.223397    0.000000
      3          6           0        0.282630    1.223755    0.000000
      4          6           0        0.972207    0.000000    0.000000
      5          6           0        0.282630   -1.223755    0.000000
      6          6           0       -1.123296   -1.223397    0.000000
      7         17           0       -2.044930   -2.662469    0.000000
      8         17           0       -2.044930    2.662469    0.000000
      9         17           0        1.130912    2.709454    0.000000
     10         17           0        2.687548   -0.000000    0.000000
     11         17           0        1.130912   -2.709454    0.000000
 ---------------------------------------------------------------------
 Rotational constants (GHZ):           0.7080309           0.4674866           0.2815738
 Standard basis: 6-311++G(d,p) (5D, 7F)
 There are   217 symmetry adapted cartesian basis functions of A'  symmetry.
 There are    76 symmetry adapted cartesian basis functions of A"  symmetry.
 There are   206 symmetry adapted basis functions of A'  symmetry.
 There are    76 symmetry adapted basis functions of A"  symmetry.
   282 basis functions,   481 primitive gaussians,   293 cartesian basis functions
    61 alpha electrons       60 beta electrons
       nuclear repulsion energy      1058.8171531032 Hartrees.
 NAtoms=   11 NActive=   11 NUniq=   11 SFac= 1.00D+00 NAtFMM=   60 NAOKFM=F Big=F
 Integral buffers will be    131072 words long.
 Raffenetti 2 integral format.
 Two-electron integral symmetry is turned on.
 One-electron integrals computed using PRISM.
 NBasis=   282 RedAO= T EigKep=  2.26D-06  NBF=   206    76
 NBsUse=   280 1.00D-06 EigRej=  4.33D-07 NBFU=   204    76
 Initial guess from the checkpoint file:  "frequency_chks/1_3456ClBzNeutralRadical_Freq.chk"
 B after Tr=    -0.000000   -0.000000    0.000000
         Rot=    0.707107   -0.000000   -0.000000   -0.707107 Ang= -90.00 deg.
 Initial guess orbital symmetries:
 Alpha Orbitals:
       Occupied  (A') (A') (A') (A') (A') (A') (A') (A') (A') (A')
                 (A') (A') (A') (A') (A') (A') (A') (A') (A') (A')
                 (A') (A") (A") (A') (A') (A") (A") (A') (A') (A")
                 (A') (A') (A') (A') (A') (A') (A') (A') (A') (A')
                 (A') (A') (A') (A') (A") (A') (A') (A') (A") (A")
                 (A") (A') (A") (A') (A') (A') (A") (A') (A') (A")
                 (A")
       Virtual   (A") (A") (A') (A') (A') (A') (A') (A') (A") (A')
                 (A') (A') (A") (A") (A') (A') (A") (A') (A") (A')
                 (A') (A") (A') (A') (A') (A") (A") (A") (A') (A')
                 (A') (A') (A") (A') (A') (A') (A") (A') (A') (A')
                 (A') (A") (A') (A') (A') (A') (A') (A') (A') (A')
                 (A') (A') (A') (A') (A') (A') (A") (A') (A") (A')
                 (A") (A') (A') (A') (A') (A") (A') (A") (A') (A')
                 (A") (A') (A") (A") (A') (A") (A") (A') (A') (A')
                 (A') (A") (A') (A') (A") (A') (A") (A') (A") (A')
                 (A') (A') (A") (A') (A") (A') (A") (A") (A') (A")
                 (A') (A") (A') (A') (A') (A') (A') (A') (A') (A")
                 (A') (A') (A') (A") (A') (A') (A') (A') (A') (A")
                 (A') (A') (A') (A") (A") (A') (A') (A') (A") (A")
                 (A') (A') (A') (A') (A') (A') (A") (A") (A') (A')
                 (A') (A") (A') (A") (A") (A') (A') (A') (A') (A")
                 (A") (A') (A") (A") (A") (A') (A") (A') (A') (A')
                 (A') (A') (A') (A') (A') (A') (A') (A") (A') (A')
                 (A") (A") (A") (A") (A') (A') (A") (A') (A') (A')
                 (A') (A') (A') (A') (A') (A') (A') (A') (A') (A')
                 (A') (A') (A') (A') (A') (A') (A') (A') (A') (A")
                 (A") (A") (A") (A") (A') (A') (A') (A') (A') (A')
                 (A') (A') (A') (A') (A') (A') (A') (A') (A')
 Beta  Orbitals:
       Occupied  (A') (A') (A') (A') (A') (A') (A') (A') (A') (A')
                 (A') (A') (A') (A') (A') (A') (A') (A') (A') (A')
                 (A') (A") (A") (A') (A') (A") (A") (A') (A') (A")
                 (A') (A') (A') (A') (A') (A') (A') (A') (A') (A')
                 (A') (A') (A') (A') (A") (A') (A') (A') (A") (A")
                 (A") (A") (A') (A') (A') (A') (A") (A') (A") (A")
       Virtual   (A') (A") (A") (A') (A') (A') (A') (A') (A') (A")
                 (A') (A') (A') (A") (A") (A') (A') (A") (A') (A")
                 (A') (A') (A") (A') (A') (A') (A") (A') (A") (A')
                 (A") (A') (A') (A") (A') (A') (A') (A") (A') (A')
                 (A') (A') (A") (A') (A') (A') (A') (A') (A') (A')
                 (A') (A') (A') (A') (A') (A') (A') (A') (A") (A")
                 (A') (A") (A') (A') (A') (A') (A") (A') (A") (A')
                 (A') (A") (A') (A') (A") (A") (A") (A") (A') (A')
                 (A') (A') (A") (A') (A') (A") (A') (A") (A') (A")
                 (A') (A') (A') (A") (A') (A") (A') (A') (A") (A")
                 (A") (A') (A") (A') (A') (A') (A') (A') (A') (A')
                 (A") (A') (A') (A') (A") (A') (A') (A') (A') (A')
                 (A') (A") (A') (A') (A") (A") (A') (A') (A') (A")
                 (A") (A') (A') (A') (A') (A') (A') (A") (A") (A')
                 (A') (A') (A") (A') (A") (A") (A') (A') (A') (A')
                 (A") (A") (A') (A") (A") (A") (A') (A") (A') (A')
                 (A') (A') (A') (A') (A') (A') (A') (A') (A") (A')
                 (A') (A") (A") (A") (A") (A') (A') (A") (A') (A')
                 (A') (A') (A') (A') (A') (A') (A') (A') (A') (A')
                 (A') (A') (A') (A') (A') (A') (A') (A') (A') (A')
                 (A") (A") (A") (A") (A") (A') (A') (A') (A') (A')
                 (A') (A') (A') (A') (A') (A') (A') (A') (A') (A')
 Initial guess <Sx>= 0.0000 <Sy>= 0.0000 <Sz>= 0.5000 <S**2>= 0.7639 S= 0.5069
 ExpMin= 4.38D-02 ExpMax= 1.06D+05 ExpMxC= 3.62D+03 IAcc=3 IRadAn=         5 AccDes= 0.00D+00
 Harris functional with IExCor= 1009 and IRadAn=       5 diagonalized for initial guess.
 HarFok:  IExCor= 1009 AccDes= 0.00D+00 IRadAn=         5 IDoV= 1 UseB2=F ITyADJ=14
 ICtDFT=  3500011 ScaDFX=  1.000000  1.000000  1.000000  1.000000
 FoFCou: FMM=F IPFlag=           0 FMFlag=      100000 FMFlg1=           0
         NFxFlg=           0 DoJE=T BraDBF=F KetDBF=T FulRan=T
         wScrn=  0.000000 ICntrl=       500 IOpCl=  0 I1Cent=   200000004 NGrid=           0
         NMat0=    1 NMatS0=      1 NMatT0=    0 NMatD0=    1 NMtDS0=    0 NMtDT0=    0
 Petite list used in FoFCou.
 Requested convergence on RMS density matrix=1.00D-08 within 128 cycles.
 Requested convergence on MAX density matrix=1.00D-06.
 Requested convergence on             energy=1.00D-06.
 No special actions if energy rises.
 SCF Done:  E(UM062X) =  -2529.48941438     A.U. after   16 cycles
            NFock= 16  Conv=0.31D-08     -V/T= 2.0022
 <Sx>= 0.0000 <Sy>= 0.0000 <Sz>= 0.5000 <S**2>= 0.7635 S= 0.5067
 <L.S>=  0.00000000000    
 Annihilation of the first spin contaminant:
 S**2 before annihilation     0.7635,   after     0.7501
 Calling FoFJK, ICntrl=      2127 FMM=F ISym2X=1 I1Cent= 0 IOpClX= 1 NMat=1 NMatS=1 NMatT=0.
 ***** Axes restored to original set *****
 -------------------------------------------------------------------
 Center     Atomic                   Forces (Hartrees/Bohr)
 Number     Number              X              Y              Z
 -------------------------------------------------------------------
      1        6          -0.005367860    0.002905572   -0.000000000
      2        6           0.004984024   -0.012109759   -0.000000000
      3        6          -0.006259829   -0.001665463   -0.000000000
      4        6          -0.004310041    0.002332991   -0.000000000
      5        6          -0.002028344    0.006151830   -0.000000000
      6        6           0.012864282    0.002448576   -0.000000000
      7       17          -0.006671683   -0.002860321   -0.000000000
      8       17          -0.001253169    0.007150004   -0.000000000
      9       17           0.004235345    0.002288108   -0.000000000
     10       17           0.003407198   -0.001844283   -0.000000000
     11       17           0.000400077   -0.004797255   -0.000000000
 -------------------------------------------------------------------
 Cartesian Forces:  Max     0.012864282 RMS     0.004454856

 GradGradGradGradGradGradGradGradGradGradGradGradGradGradGradGradGradGrad
 Berny optimization.
 Using GEDIIS/GDIIS optimizer.
 FormGI is forming the generalized inverse of G from B-inverse, IUseBI=4.
 Internal  Forces:  Max     0.007222715 RMS     0.002179985
 Search for a local minimum.
 Step number   2 out of a maximum of   57
 All quantities printed in internal units (Hartrees-Bohrs-Radians)
 Mixed Optimization -- RFO/linear search
 Update second derivatives using D2CorX and points    1    2
 DE= -4.89D-03 DEPred=-3.98D-03 R= 1.23D+00
 TightC=F SS=  1.41D+00  RLast= 1.43D-01 DXNew= 5.0454D-01 4.2939D-01
 Trust test= 1.23D+00 RLast= 1.43D-01 DXMaxT set to 4.29D-01
 ITU=  1  0
 Use linear search instead of GDIIS.
     Eigenvalues ---    0.01839   0.01843   0.01857   0.01873   0.01902
     Eigenvalues ---    0.01997   0.02049   0.02344   0.21965   0.25000
     Eigenvalues ---    0.25000   0.25000   0.25000   0.25000   0.25000
     Eigenvalues ---    0.25129   0.32025   0.37265   0.37885   0.38306
     Eigenvalues ---    0.38791   0.39780   0.41032   0.42230   0.42912
     Eigenvalues ---    0.49590   0.49967
 RFO step:  Lambda=-1.51952993D-04 EMin= 1.83894912D-02
 Quartic linear search produced a step of  0.37823.
 Iteration  1 RMS(Cart)=  0.00625055 RMS(Int)=  0.00003915
 Iteration  2 RMS(Cart)=  0.00005641 RMS(Int)=  0.00002096
 Iteration  3 RMS(Cart)=  0.00000000 RMS(Int)=  0.00002096
 ClnCor:  largest displacement from symmetrization is 6.57D-09 for atom    10.
 Variable       Old X    -DE/DX   Delta X   Delta X   Delta X     New X
                                 (Linear)    (Quad)   (Total)
    R1        2.57734   0.00002  -0.00654   0.00635  -0.00016   2.57718
    R2        2.57734   0.00002  -0.00654   0.00635  -0.00016   2.57718
    R3        2.65682  -0.00259  -0.01060   0.00146  -0.00914   2.64768
    R4        3.22935   0.00722   0.02272   0.00450   0.02722   3.25657
    R5        2.65444  -0.00158  -0.00830   0.00250  -0.00583   2.64861
    R6        3.23297   0.00481   0.01915  -0.00035   0.01881   3.25178
    R7        2.65444  -0.00158  -0.00830   0.00250  -0.00583   2.64861
    R8        3.24152   0.00387   0.01797  -0.00232   0.01565   3.25717
    R9        2.65682  -0.00259  -0.01060   0.00146  -0.00914   2.64768
   R10        3.23297   0.00481   0.01915  -0.00035   0.01881   3.25178
   R11        3.22935   0.00722   0.02272   0.00450   0.02722   3.25657
    A1        2.22589  -0.00409  -0.01328  -0.00949  -0.02269   2.20320
    A2        2.02890   0.00232   0.00816   0.00555   0.01373   2.04264
    A3        2.11412  -0.00233  -0.00485  -0.00852  -0.01338   2.10074
    A4        2.14016   0.00001  -0.00331   0.00297  -0.00036   2.13981
    A5        2.08369  -0.00011   0.00004  -0.00100  -0.00099   2.08269
    A6        2.08985   0.00053  -0.00053   0.00357   0.00305   2.09290
    A7        2.10965  -0.00042   0.00050  -0.00257  -0.00206   2.10760
    A8        2.11531  -0.00033  -0.00311   0.00038  -0.00279   2.11252
    A9        2.08394   0.00016   0.00155  -0.00019   0.00139   2.08533
   A10        2.08394   0.00016   0.00155  -0.00019   0.00140   2.08533
   A11        2.08369  -0.00011   0.00004  -0.00100  -0.00099   2.08269
   A12        2.10965  -0.00042   0.00050  -0.00257  -0.00206   2.10760
   A13        2.08985   0.00053  -0.00053   0.00357   0.00305   2.09290
   A14        2.02890   0.00232   0.00816   0.00555   0.01373   2.04264
   A15        2.11412  -0.00233  -0.00485  -0.00852  -0.01338   2.10074
   A16        2.14016   0.00001  -0.00331   0.00297  -0.00036   2.13981
    D1        0.00000  -0.00000   0.00000  -0.00000   0.00000   0.00000
    D2        3.14159  -0.00000   0.00000  -0.00000   0.00000   3.14159
    D3        0.00000  -0.00000   0.00000  -0.00000   0.00000   0.00000
    D4        3.14159   0.00000   0.00000   0.00000   0.00000   3.14159
    D5        0.00000   0.00000   0.00000   0.00000   0.00000   0.00000
    D6        3.14159   0.00000   0.00000   0.00000   0.00000   3.14159
    D7        3.14159   0.00000   0.00000   0.00000   0.00000   3.14159
    D8        0.00000   0.00000   0.00000   0.00000   0.00000   0.00000
    D9        0.00000  -0.00000   0.00000  -0.00000   0.00000   0.00000
   D10        3.14159  -0.00000   0.00000  -0.00000   0.00000   3.14159
   D11        3.14159  -0.00000   0.00000  -0.00000   0.00000   3.14159
   D12        0.00000  -0.00000   0.00000  -0.00000   0.00000   0.00000
   D13        0.00000  -0.00000   0.00000  -0.00000   0.00000   0.00000
   D14        3.14159  -0.00000   0.00000  -0.00000   0.00000   3.14159
   D15        3.14159   0.00000   0.00000  -0.00000   0.00000   3.14159
   D16        0.00000  -0.00000   0.00000  -0.00000   0.00000   0.00000
   D17        0.00000   0.00000   0.00000   0.00000   0.00000   0.00000
   D18        3.14159  -0.00000   0.00000  -0.00000   0.00000   3.14159
   D19        3.14159   0.00000   0.00000   0.00000   0.00000   3.14159
   D20        0.00000  -0.00000   0.00000  -0.00000   0.00000   0.00000
         Item               Value     Threshold  Converged?
 Maximum Force            0.007223     0.000450     NO 
 RMS     Force            0.002180     0.000300     NO 
 Maximum Displacement     0.016323     0.001800     NO 
 RMS     Displacement     0.006253     0.001200     NO 
 Predicted change in Energy=-4.382891D-04
 GradGradGradGradGradGradGradGradGradGradGradGradGradGradGradGradGradGrad

                          Input orientation:                          
 ---------------------------------------------------------------------
 Center     Atomic      Atomic             Coordinates (Angstroms)
 Number     Number       Type             X           Y           Z
 ---------------------------------------------------------------------
      1          6           0       -3.120034    0.151122    0.000000
      2          6           0       -1.998679    0.927311    0.000000
      3          6           0       -0.764761    0.263610    0.000000
      4          6           0       -0.738968   -1.137735    0.000000
      5          6           0       -1.926374   -1.882382    0.000000
      6          6           0       -3.156766   -1.212167    0.000000
      7         17           0       -4.666615   -2.042909    0.000000
      8         17           0       -2.128697    2.645703    0.000000
      9         17           0        0.697533    1.170655    0.000000
     10         17           0        0.776834   -1.958229    0.000000
     11         17           0       -1.886245   -3.602680    0.000000
 ---------------------------------------------------------------------
                    Distance matrix (angstroms):
                    1          2          3          4          5
     1  C    0.000000
     2  C    1.363784   0.000000
     3  C    2.357958   1.401090   0.000000
     4  C    2.707513   2.418943   1.401582   0.000000
     5  C    2.357958   2.810624   2.440211   1.401582   0.000000
     6  C    1.363784   2.432803   2.810624   2.418943   1.401090
     7  Cl   2.684341   3.992504   4.532604   4.030602   2.744939
     8  Cl   2.684341   1.723304   2.744939   4.030602   4.532604
     9  Cl   3.951362   2.707171   1.720765   2.718860   4.025658
    10  Cl   4.431133   4.003725   2.704271   1.723620   2.704271
    11  Cl   3.951362   4.531386   4.025658   2.718860   1.720765
                    6          7          8          9         10
     6  C    0.000000
     7  Cl   1.723304   0.000000
     8  Cl   3.992504   5.331427   0.000000
     9  Cl   4.531386   6.253085   3.188000   0.000000
    10  Cl   4.003725   5.444107   5.444107   3.129889   0.000000
    11  Cl   2.707171   3.188000   6.253085   5.427765   3.129889
                   11
    11  Cl   0.000000
 Stoichiometry    C6Cl5(2)
 Framework group  CS[SG(C6Cl5)]
 Deg. of freedom    19
 Full point group                 CS      NOp   2
 Largest Abelian subgroup         CS      NOp   2
 Largest concise Abelian subgroup C1      NOp   1
                         Standard orientation:                         
 ---------------------------------------------------------------------
 Center     Atomic      Atomic             Coordinates (Angstroms)
 Number     Number       Type             X           Y           Z
 ---------------------------------------------------------------------
      1          6           0       -1.736367   -0.000000    0.000000
      2          6           0       -1.119703    1.216402    0.000000
      3          6           0        0.281382    1.220105   -0.000000
      4          6           0        0.971147    0.000000   -0.000000
      5          6           0        0.281382   -1.220105   -0.000000
      6          6           0       -1.119703   -1.216402    0.000000
      7         17           0       -2.052051   -2.665714    0.000000
      8         17           0       -2.052051    2.665714    0.000000
      9         17           0        1.135585    2.713882   -0.000000
     10         17           0        2.694766    0.000000   -0.000000
     11         17           0        1.135585   -2.713882   -0.000000
 ---------------------------------------------------------------------
 Rotational constants (GHZ):           0.7037629           0.4665092           0.2805432
 Standard basis: 6-311++G(d,p) (5D, 7F)
 There are   217 symmetry adapted cartesian basis functions of A'  symmetry.
 There are    76 symmetry adapted cartesian basis functions of A"  symmetry.
 There are   206 symmetry adapted basis functions of A'  symmetry.
 There are    76 symmetry adapted basis functions of A"  symmetry.
   282 basis functions,   481 primitive gaussians,   293 cartesian basis functions
    61 alpha electrons       60 beta electrons
       nuclear repulsion energy      1056.5570400514 Hartrees.
 NAtoms=   11 NActive=   11 NUniq=   11 SFac= 1.00D+00 NAtFMM=   60 NAOKFM=F Big=F
 Integral buffers will be    131072 words long.
 Raffenetti 2 integral format.
 Two-electron integral symmetry is turned on.
 One-electron integrals computed using PRISM.
 NBasis=   282 RedAO= T EigKep=  2.19D-06  NBF=   206    76
 NBsUse=   280 1.00D-06 EigRej=  4.39D-07 NBFU=   204    76
 Initial guess from the checkpoint file:  "frequency_chks/1_3456ClBzNeutralRadical_Freq.chk"
 B after Tr=    -0.000000    0.000000    0.000000
         Rot=    1.000000    0.000000   -0.000000   -0.000000 Ang=   0.00 deg.
 Initial guess orbital symmetries:
 Alpha Orbitals:
       Occupied  (A') (A') (A') (A') (A') (A') (A') (A') (A') (A')
                 (A') (A') (A') (A') (A') (A') (A') (A') (A') (A')
                 (A') (A") (A") (A') (A') (A") (A") (A') (A') (A")
                 (A') (A') (A') (A') (A') (A') (A') (A') (A') (A')
                 (A') (A') (A') (A') (A") (A') (A') (A') (A") (A")
                 (A") (A') (A") (A') (A') (A') (A") (A') (A') (A")
                 (A")
       Virtual   (A") (A") (A') (A') (A') (A') (A') (A') (A") (A')
                 (A') (A') (A") (A") (A') (A') (A') (A") (A") (A')
                 (A') (A") (A') (A') (A') (A") (A") (A') (A") (A')
                 (A') (A') (A") (A') (A') (A') (A") (A') (A') (A')
                 (A') (A") (A') (A') (A') (A') (A') (A') (A') (A')
                 (A') (A') (A') (A') (A') (A') (A") (A') (A') (A")
                 (A") (A') (A') (A') (A') (A') (A") (A") (A') (A')
                 (A") (A') (A") (A") (A') (A") (A") (A') (A') (A')
                 (A') (A") (A') (A') (A") (A') (A") (A') (A') (A")
                 (A') (A') (A") (A') (A") (A') (A') (A") (A") (A")
                 (A') (A') (A") (A') (A') (A') (A') (A') (A') (A")
                 (A') (A') (A') (A') (A") (A') (A') (A') (A') (A")
                 (A') (A') (A') (A") (A") (A') (A') (A") (A') (A")
                 (A') (A') (A') (A') (A') (A') (A") (A") (A') (A')
                 (A') (A") (A') (A") (A") (A') (A') (A') (A') (A")
                 (A") (A') (A") (A") (A") (A') (A') (A") (A') (A')
                 (A') (A') (A') (A') (A') (A') (A') (A") (A') (A')
                 (A") (A") (A") (A") (A') (A') (A") (A') (A') (A')
                 (A') (A') (A') (A') (A') (A') (A') (A') (A') (A')
                 (A') (A') (A') (A') (A') (A') (A') (A') (A') (A")
                 (A") (A") (A") (A") (A') (A') (A') (A') (A') (A')
                 (A') (A') (A') (A') (A') (A') (A') (A') (A')
 Beta  Orbitals:
       Occupied  (A') (A') (A') (A') (A') (A') (A') (A') (A') (A')
                 (A') (A') (A') (A') (A') (A') (A') (A') (A') (A')
                 (A') (A") (A") (A') (A') (A") (A") (A') (A') (A")
                 (A') (A') (A') (A') (A') (A') (A') (A') (A') (A')
                 (A') (A') (A') (A') (A") (A') (A') (A') (A") (A")
                 (A") (A') (A") (A') (A') (A') (A") (A') (A") (A")
       Virtual   (A') (A") (A") (A') (A') (A') (A') (A') (A') (A")
                 (A') (A') (A') (A") (A") (A') (A') (A') (A") (A")
                 (A') (A') (A") (A') (A') (A') (A") (A') (A') (A")
                 (A") (A') (A') (A") (A') (A') (A') (A") (A') (A')
                 (A') (A') (A") (A') (A') (A') (A') (A') (A') (A')
                 (A') (A') (A') (A') (A') (A') (A') (A') (A") (A')
                 (A") (A") (A') (A') (A') (A') (A') (A") (A") (A')
                 (A') (A") (A') (A') (A") (A") (A") (A") (A') (A')
                 (A') (A") (A') (A') (A') (A") (A') (A") (A') (A')
                 (A") (A') (A') (A") (A') (A") (A') (A') (A") (A")
                 (A") (A') (A") (A') (A') (A') (A') (A') (A') (A')
                 (A") (A') (A') (A') (A') (A") (A') (A') (A') (A')
                 (A') (A") (A') (A') (A") (A') (A') (A") (A') (A")
                 (A") (A') (A') (A') (A') (A') (A') (A") (A") (A')
                 (A') (A') (A") (A') (A") (A") (A') (A') (A') (A')
                 (A") (A") (A') (A") (A") (A") (A') (A') (A") (A')
                 (A') (A') (A') (A') (A') (A') (A') (A') (A") (A')
                 (A') (A") (A") (A") (A") (A') (A') (A") (A') (A')
                 (A') (A') (A') (A') (A') (A') (A') (A') (A') (A')
                 (A') (A') (A') (A') (A') (A') (A') (A') (A') (A')
                 (A") (A") (A") (A") (A") (A') (A') (A') (A') (A')
                 (A') (A') (A') (A') (A') (A') (A') (A') (A') (A')
 Initial guess <Sx>= 0.0000 <Sy>= 0.0000 <Sz>= 0.5000 <S**2>= 0.7635 S= 0.5067
 Requested convergence on RMS density matrix=1.00D-08 within 128 cycles.
 Requested convergence on MAX density matrix=1.00D-06.
 Requested convergence on             energy=1.00D-06.
 No special actions if energy rises.
 SCF Done:  E(UM062X) =  -2529.48989607     A.U. after   15 cycles
            NFock= 15  Conv=0.70D-08     -V/T= 2.0022
 <Sx>= 0.0000 <Sy>= 0.0000 <Sz>= 0.5000 <S**2>= 0.7636 S= 0.5068
 <L.S>=  0.00000000000    
 Annihilation of the first spin contaminant:
 S**2 before annihilation     0.7636,   after     0.7501
 Calling FoFJK, ICntrl=      2127 FMM=F ISym2X=1 I1Cent= 0 IOpClX= 1 NMat=1 NMatS=1 NMatT=0.
 ***** Axes restored to original set *****
 -------------------------------------------------------------------
 Center     Atomic                   Forces (Hartrees/Bohr)
 Number     Number              X              Y              Z
 -------------------------------------------------------------------
      1        6          -0.001331970    0.000720971   -0.000000000
      2        6           0.001315072   -0.001034643   -0.000000000
      3        6           0.000162004    0.001052936    0.000000000
      4        6           0.000882420   -0.000477658   -0.000000000
      5        6          -0.000792993   -0.000711372   -0.000000000
      6        6           0.001585334   -0.000535317    0.000000000
      7       17          -0.000587278   -0.000208009   -0.000000000
      8       17          -0.000146959    0.000605454    0.000000000
      9       17          -0.000422428   -0.000042740   -0.000000000
     10       17          -0.000468021    0.000253322   -0.000000000
     11       17          -0.000195183    0.000377056    0.000000000
 -------------------------------------------------------------------
 Cartesian Forces:  Max     0.001585334 RMS     0.000617679

 GradGradGradGradGradGradGradGradGradGradGradGradGradGradGradGradGradGrad
 Berny optimization.
 Using GEDIIS/GDIIS optimizer.
 FormGI is forming the generalized inverse of G from B-inverse, IUseBI=4.
 Internal  Forces:  Max     0.000682035 RMS     0.000321204
 Search for a local minimum.
 Step number   3 out of a maximum of   57
 All quantities printed in internal units (Hartrees-Bohrs-Radians)
 Mixed Optimization -- En-DIIS/RFO-DIIS
 Update second derivatives using D2CorX and points    1    2    3
 DE= -4.82D-04 DEPred=-4.38D-04 R= 1.10D+00
 TightC=F SS=  1.41D+00  RLast= 6.29D-02 DXNew= 7.2215D-01 1.8879D-01
 Trust test= 1.10D+00 RLast= 6.29D-02 DXMaxT set to 4.29D-01
 ITU=  1  1  0
 Use linear search instead of GDIIS.
     Eigenvalues ---    0.01839   0.01843   0.01857   0.01873   0.01902
     Eigenvalues ---    0.01995   0.02046   0.02339   0.19363   0.25000
     Eigenvalues ---    0.25000   0.25000   0.25000   0.25000   0.25043
     Eigenvalues ---    0.25250   0.32181   0.37287   0.37885   0.38538
     Eigenvalues ---    0.38791   0.39754   0.41352   0.42164   0.42911
     Eigenvalues ---    0.49945   0.50251
 RFO step:  Lambda=-1.32062716D-05 EMin= 1.83885975D-02
 Quartic linear search produced a step of  0.05134.
 Iteration  1 RMS(Cart)=  0.00129682 RMS(Int)=  0.00000145
[...]
      8       17           0.000023933   -0.000048774   -0.000000000
      9       17          -0.000086780   -0.000032324   -0.000000000
     10       17          -0.000047009    0.000025440   -0.000000000
     11       17          -0.000020380    0.000090334   -0.000000000
 -------------------------------------------------------------------
 Cartesian Forces:  Max     0.000122783 RMS     0.000048823
 FormGI is forming the generalized inverse of G from B-inverse, IUseBI=4.

 GradGradGradGradGradGradGradGradGradGradGradGradGradGradGradGradGradGrad
 Berny optimization.
 Internal  Forces:  Max     0.000090763 RMS     0.000030308
 Search for a local minimum.
 Step number   1 out of a maximum of    2
 All quantities printed in internal units (Hartrees-Bohrs-Radians)
 Second derivative matrix not updated -- analytic derivatives used.
 ITU=  0
     Eigenvalues ---    0.01474   0.01522   0.01607   0.02441   0.02845
     Eigenvalues ---    0.02916   0.03647   0.03814   0.14881   0.15377
     Eigenvalues ---    0.16899   0.17096   0.18977   0.19852   0.23355
     Eigenvalues ---    0.26044   0.26095   0.27230   0.28046   0.30566
     Eigenvalues ---    0.30931   0.40988   0.46404   0.48193   0.49816
     Eigenvalues ---    0.51820   0.52432
 Angle between quadratic step and forces=  18.12 degrees.
 Linear search not attempted -- first point.
 Iteration  1 RMS(Cart)=  0.00012029 RMS(Int)=  0.00000001
 Iteration  2 RMS(Cart)=  0.00000001 RMS(Int)=  0.00000000
 ClnCor:  largest displacement from symmetrization is 4.62D-15 for atom     8.
 Variable       Old X    -DE/DX   Delta X   Delta X   Delta X     New X
                                 (Linear)    (Quad)   (Total)
    R1        2.57867  -0.00005   0.00000  -0.00012  -0.00012   2.57856
    R2        2.57867  -0.00005   0.00000  -0.00012  -0.00012   2.57856
    R3        2.64617  -0.00002   0.00000   0.00002   0.00002   2.64619
    R4        3.25979  -0.00005   0.00000  -0.00017  -0.00017   3.25962
    R5        2.65008   0.00004   0.00000   0.00012   0.00012   2.65020
    R6        3.25044  -0.00009   0.00000  -0.00036  -0.00036   3.25008
    R7        2.65008   0.00004   0.00000   0.00012   0.00012   2.65020
    R8        3.25497  -0.00005   0.00000  -0.00020  -0.00020   3.25476
    R9        2.64617  -0.00002   0.00000   0.00002   0.00002   2.64619
   R10        3.25044  -0.00009   0.00000  -0.00036  -0.00036   3.25008
   R11        3.25979  -0.00005   0.00000  -0.00017  -0.00017   3.25962
    A1        2.19885   0.00002   0.00000   0.00011   0.00011   2.19897
    A2        2.04565   0.00001   0.00000   0.00000   0.00000   2.04565
    A3        2.09763   0.00003   0.00000   0.00015   0.00015   2.09778
    A4        2.13991  -0.00004   0.00000  -0.00016  -0.00016   2.13975
    A5        2.08206  -0.00001   0.00000  -0.00007  -0.00007   2.08200
    A6        2.09256  -0.00002   0.00000  -0.00003  -0.00003   2.09253
    A7        2.10856   0.00004   0.00000   0.00010   0.00010   2.10866
    A8        2.11209  -0.00002   0.00000   0.00002   0.00002   2.11211
    A9        2.08555   0.00001   0.00000  -0.00001  -0.00001   2.08554
   A10        2.08555   0.00001   0.00000  -0.00001  -0.00001   2.08554
   A11        2.08206  -0.00001   0.00000  -0.00007  -0.00007   2.08200
   A12        2.10856   0.00004   0.00000   0.00010   0.00010   2.10866
   A13        2.09256  -0.00002   0.00000  -0.00003  -0.00003   2.09253
   A14        2.04565   0.00001   0.00000   0.00000   0.00000   2.04565
   A15        2.09763   0.00003   0.00000   0.00015   0.00015   2.09778
   A16        2.13991  -0.00004   0.00000  -0.00016  -0.00016   2.13975
    D1        0.00000   0.00000   0.00000   0.00000   0.00000   0.00000
    D2        3.14159  -0.00000   0.00000  -0.00000   0.00000   3.14159
    D3        0.00000  -0.00000   0.00000   0.00000   0.00000   0.00000
    D4        3.14159   0.00000   0.00000   0.00000   0.00000   3.14159
    D5        0.00000  -0.00000   0.00000  -0.00000   0.00000   0.00000
    D6        3.14159  -0.00000   0.00000  -0.00000   0.00000   3.14159
    D7        3.14159  -0.00000   0.00000   0.00000   0.00000   3.14159
    D8        0.00000  -0.00000   0.00000   0.00000   0.00000   0.00000
    D9        0.00000   0.00000   0.00000  -0.00000   0.00000   0.00000
   D10        3.14159  -0.00000   0.00000  -0.00000   0.00000   3.14159
   D11        3.14159  -0.00000   0.00000  -0.00000   0.00000   3.14159
   D12        0.00000  -0.00000   0.00000  -0.00000   0.00000   0.00000
   D13        0.00000   0.00000   0.00000   0.00000   0.00000   0.00000
   D14        3.14159   0.00000   0.00000   0.00000   0.00000   3.14159
   D15        3.14159   0.00000   0.00000   0.00000   0.00000   3.14159
   D16        0.00000  -0.00000   0.00000   0.00000   0.00000   0.00000
   D17        0.00000  -0.00000   0.00000  -0.00000   0.00000   0.00000
   D18        3.14159  -0.00000   0.00000  -0.00000   0.00000   3.14159
   D19        3.14159  -0.00000   0.00000  -0.00000   0.00000   3.14159
   D20        0.00000  -0.00000   0.00000  -0.00000   0.00000   0.00000
         Item               Value     Threshold  Converged?
 Maximum Force            0.000091     0.000450     YES
 RMS     Force            0.000030     0.000300     YES
 Maximum Displacement     0.000386     0.001800     YES
 RMS     Displacement     0.000120     0.001200     YES
 Predicted change in Energy=-7.347808D-08
 Optimization completed.
    -- Stationary point found.
                           ----------------------------
                           !   Optimized Parameters   !
                           ! (Angstroms and Degrees)  !
 --------------------------                            --------------------------
 ! Name  Definition              Value          Derivative Info.                !
 --------------------------------------------------------------------------------
 ! R1    R(1,2)                  1.3646         -DE/DX =    0.0                 !
 ! R2    R(1,6)                  1.3646         -DE/DX =    0.0                 !
 ! R3    R(2,3)                  1.4003         -DE/DX =    0.0                 !
 ! R4    R(2,8)                  1.725          -DE/DX =   -0.0001              !
 ! R5    R(3,4)                  1.4024         -DE/DX =    0.0                 !
 ! R6    R(3,9)                  1.7201         -DE/DX =   -0.0001              !
 ! R7    R(4,5)                  1.4024         -DE/DX =    0.0                 !
 ! R8    R(4,10)                 1.7225         -DE/DX =   -0.0001              !
 ! R9    R(5,6)                  1.4003         -DE/DX =    0.0                 !
 ! R10   R(5,11)                 1.7201         -DE/DX =   -0.0001              !
 ! R11   R(6,7)                  1.725          -DE/DX =   -0.0001              !
 ! A1    A(2,1,6)              125.985          -DE/DX =    0.0                 !
 ! A2    A(1,2,3)              117.2069         -DE/DX =    0.0                 !
 ! A3    A(1,2,8)              120.1854         -DE/DX =    0.0                 !
 ! A4    A(3,2,8)              122.6077         -DE/DX =    0.0                 !
 ! A5    A(2,3,4)              119.2935         -DE/DX =    0.0                 !
 ! A6    A(2,3,9)              119.8946         -DE/DX =    0.0                 !
 ! A7    A(4,3,9)              120.8119         -DE/DX =    0.0                 !
 ! A8    A(3,4,5)              121.0141         -DE/DX =    0.0                 !
 ! A9    A(3,4,10)             119.493          -DE/DX =    0.0                 !
 ! A10   A(5,4,10)             119.493          -DE/DX =    0.0                 !
 ! A11   A(4,5,6)              119.2935         -DE/DX =    0.0                 !
 ! A12   A(4,5,11)             120.8119         -DE/DX =    0.0                 !
 ! A13   A(6,5,11)             119.8946         -DE/DX =    0.0                 !
 ! A14   A(1,6,5)              117.2069         -DE/DX =    0.0                 !
 ! A15   A(1,6,7)              120.1854         -DE/DX =    0.0                 !
 ! A16   A(5,6,7)              122.6077         -DE/DX =    0.0                 !
 ! D1    D(6,1,2,3)              0.0            -DE/DX =    0.0                 !
 ! D2    D(6,1,2,8)            180.0            -DE/DX =    0.0                 !
 ! D3    D(2,1,6,5)              0.0            -DE/DX =    0.0                 !
 ! D4    D(2,1,6,7)            180.0            -DE/DX =    0.0                 !
 ! D5    D(1,2,3,4)              0.0            -DE/DX =    0.0                 !
 ! D6    D(1,2,3,9)            180.0            -DE/DX =    0.0                 !
 ! D7    D(8,2,3,4)            180.0            -DE/DX =    0.0                 !
 ! D8    D(8,2,3,9)              0.0            -DE/DX =    0.0                 !
 ! D9    D(2,3,4,5)              0.0            -DE/DX =    0.0                 !
 ! D10   D(2,3,4,10)           180.0            -DE/DX =    0.0                 !
 ! D11   D(9,3,4,5)            180.0            -DE/DX =    0.0                 !
 ! D12   D(9,3,4,10)             0.0            -DE/DX =    0.0                 !
 ! D13   D(3,4,5,6)              0.0            -DE/DX =    0.0                 !
 ! D14   D(3,4,5,11)           180.0            -DE/DX =    0.0                 !
 ! D15   D(10,4,5,6)           180.0            -DE/DX =    0.0                 !
 ! D16   D(10,4,5,11)            0.0            -DE/DX =    0.0                 !
 ! D17   D(4,5,6,1)              0.0            -DE/DX =    0.0                 !
 ! D18   D(4,5,6,7)            180.0            -DE/DX =    0.0                 !
 ! D19   D(11,5,6,1)           180.0            -DE/DX =    0.0                 !
 ! D20   D(11,5,6,7)             0.0            -DE/DX =    0.0                 !
 --------------------------------------------------------------------------------
 GradGradGradGradGradGradGradGradGradGradGradGradGradGradGradGradGradGrad


 ----------------------------------------------------------------------

 Electric dipole moment (input orientation):
 (Debye = 10**-18 statcoulomb cm , SI units = C m)
                  (au)            (Debye)         (10**-30 SI)
   Tot        0.450935D-01      0.114616D+00      0.382318D+00
   x         -0.396565D-01     -0.100797D+00     -0.336222D+00
   y          0.214658D-01      0.545607D-01      0.181995D+00
   z          0.000000D+00      0.000000D+00      0.000000D+00

 Dipole polarizability, Alpha (input orientation).
 (esu units = cm**3 , SI units = C**2 m**2 J**-1)
 Alpha(0;0):
               (au)            (10**-24 esu)      (10**-40 SI)
   iso        0.127699D+03      0.189230D+02      0.210546D+02
   aniso      0.936563D+02      0.138784D+02      0.154418D+02
   xx         0.150623D+03      0.223201D+02      0.248344D+02
   yx         0.112113D+02      0.166134D+01      0.184849D+01
   yy         0.165267D+03      0.244900D+02      0.272488D+02
   zx         0.000000D+00      0.000000D+00      0.000000D+00
   zy         0.000000D+00      0.000000D+00      0.000000D+00
   zz         0.672057D+02      0.995886D+01      0.110807D+02

 ----------------------------------------------------------------------

 Dipole orientation:
     6         -1.21650761         -2.24740675          5.32390538
     6         -0.12284800         -0.22695249          4.15291279
     6         -0.11846346         -0.21885238          1.50675692
     6         -1.21650765         -2.24740683          0.20207903
     6         -2.31455182         -4.27596124          1.50675700
     6         -2.31016724         -4.26786105          4.15291286
    17         -3.61441774         -6.67736623          5.91911010
    17          1.18140253          2.18255274          5.91910994
    17          1.22563822          2.26427486         -0.10346277
    17         -1.21650765         -2.24740682         -3.05288787
    17         -3.65865355         -6.75908857         -0.10346253

 Electric dipole moment (dipole orientation):
 (Debye = 10**-18 statcoulomb cm , SI units = C m)
                  (au)            (Debye)         (10**-30 SI)
   Tot        0.450935D-01      0.114616D+00      0.382318D+00
   x          0.000000D+00      0.000000D+00      0.000000D+00
   y          0.000000D+00      0.000000D+00      0.000000D+00
   z          0.450935D-01      0.114616D+00      0.382318D+00

 Dipole polarizability, Alpha (dipole orientation).
 (esu units = cm**3 , SI units = C**2 m**2 J**-1)
 Alpha(0;0):
               (au)            (10**-24 esu)      (10**-40 SI)
   iso        0.127699D+03      0.189230D+02      0.210546D+02
   aniso      0.936563D+02      0.138784D+02      0.154418D+02
   xx         0.908019D+02      0.134555D+02      0.149712D+02
   yx         0.435922D+02      0.645969D+01      0.718738D+01
   yy         0.147739D+03      0.218927D+02      0.243589D+02
   zx         0.000000D+00      0.000000D+00      0.000000D+00
   zy         0.000000D+00      0.000000D+00      0.000000D+00
   zz         0.144555D+03      0.214208D+02      0.238338D+02

 ----------------------------------------------------------------------
 1\1\GINC-SH03-01N12\Freq\UM062X\6-311++G(d,p)\C6Cl5(2)\JLAPIER\09-Dec-
 2025\0\\#N Geom=AllCheck Guess=TCheck SCRF=Check GenChk UM062X/6-311++
 G(d,p) Freq\\Neutral Radical (removed 2) 1_3456\\0,2\C,-3.1213547,0.15
 18369522,0.\C,-1.9976655729,0.9260375118,0.\C,-0.7638935063,0.26374649
 77,0.\C,-0.7377904338,-1.1383719464,0.\C,-1.9260134582,-1.8831830369,0
 .\C,-3.1551450997,-1.2123191902,0.\Cl,-4.6672668346,-2.0424621654,0.\C
 l,-2.1294279665,2.6460050033,0.\Cl,0.6967286853,1.1721399654,0.\Cl,0.7
 769862042,-1.9583113235,0.\Cl,-1.8879273179,-3.6028182687,0.\\Version=
 ES64L-G16RevB.01\State=2-A'\HF=-2529.4899061\S2=0.763646\S2-1=0.\S2A=0
 .750085\RMSD=3.979e-09\RMSF=4.882e-05\ZeroPoint=0.0403908\Thermal=0.05
 06776\Dipole=-0.0396565,0.0214658,0.\DipoleDeriv=-0.2032587,-0.0290249
 ,0.,-0.0290248,-0.2411691,0.,0.,0.,-0.0323013,-0.0479902,-0.1143867,0.
 ,-0.1919349,1.0566186,0.,0.,0.,0.0243703,0.6057341,0.5587124,0.,0.5434
 348,0.1124809,0.,0.,0.,0.0003042,0.6397552,-0.5103821,0.,-0.5103821,-0
 .0268707,0.,0.,0.,-0.0050608,-0.2446214,-0.0119031,0.,0.0033745,0.9628
 365,0.,0.,0.,0.0003042,0.8665992,0.405352,0.,0.4829001,0.1420292,0.,0.
 ,0.,0.0243703,-0.6032764,-0.3005328,0.,-0.3155155,-0.1803313,0.,0.,0.,
 -0.0002834,-0.0247499,0.0623003,0.,0.077283,-0.7588579,0.,0.,0.,-0.000
 2834,-0.5109357,-0.3581854,0.,-0.3232067,-0.2023387,0.,0.,0.,-0.004928
 7,-0.4946019,0.2762546,0.,0.2762546,-0.1337772,0.,0.,0.,-0.0015627,0.0
 173458,0.0217957,0.,-0.013183,-0.7306202,0.,0.,0.,-0.0049287\Polar=150
 .6232466,11.2112544,165.2666141,0.,0.,67.2057396\Quadrupole=0.3172664,
 0.3617923,-0.6790587,0.0340901,0.,0.\PG=CS [SG(C6Cl5)]\NImag=0\\0.4227
 1839,0.15768624,0.62867730,0.,0.,0.06609772,-0.27922044,-0.11756740,0.
 ,0.60940881,-0.14550821,-0.17033027,0.,0.04543910,0.55759791,0.,0.,-0.
 04858042,0.,0.,0.10952378,-0.06305943,-0.04628034,0.,-0.25136308,0.127
 96548,0.,0.56991569,0.02634512,0.07043053,0.,0.04346586,-0.14303402,0.
 ,-0.02734521,0.58912213,0.,0.,0.00890528,0.,0.,-0.05792969,0.,0.,0.108
 01745,-0.02270593,-0.03442866,0.,0.03521142,0.02520583,0.,-0.09997147,
 0.04003588,0.,0.56294630,-0.03442866,-0.06767427,0.,0.09312895,-0.0186
 8463,0.,-0.03503625,-0.29562902,0.,0.02668198,0.59779647,0.,0.,0.00278
 735,0.,0.,0.00125677,0.,0.,-0.05314707,0.,0.,0.11011347,0.03964616,0.0
 9341859,0.,-0.08536718,-0.00379531,0.,0.04246516,-0.08802169,0.,-0.239
 42004,-0.05103317,0.,0.60841767,0.02079314,-0.03227505,0.,-0.00287806,
 0.00237569,0.,-0.02119605,-0.02886119,0.,-0.12610531,-0.15618045,0.,-0
 .00220089,0.55062014,0.,0.,0.00890528,0.,0.,0.00612867,0.,0.,-0.001478
 87,0.,0.,-0.05314707,0.,0.,0.10801745,-0.08244733,-0.01700246,0.,0.041
 63621,-0.03133168,0.,-0.02080260,0.03836959,0.,-0.05674576,-0.03484824
 ,0.,-0.25390557,0.12630507,0.,0.53148330,0.01093834,-0.36710338,0.,-0.
 08038890,-0.03132465,0.,0.03928684,-0.06218888,0.,0.03307488,0.0732725
 4,0.,0.04180545,-0.14049153,0.,-0.00545137,0.63552341,0.,0.,-0.0485804
 2,0.,0.,0.00045951,0.,0.,0.00612867,0.,0.,0.00125677,0.,0.,-0.05792969
 ,0.,0.,0.10952378,-0.01263884,-0.02267841,0.,0.00126777,0.00251982,0.,
 -0.00053511,0.00032249,0.,0.00056787,0.00369553,0.,-0.03595236,-0.0195
 3030,0.,-0.15755631,-0.05855630,0.,0.21288234,-0.03159090,-0.02165891,
 0.,0.00223001,-0.00205311,0.,-0.00074329,0.00129046,0.,0.00115750,-0.0
 0197474,0.,0.00363609,0.00206991,0.,-0.07632601,-0.07078995,0.,0.09557
 138,0.09321326,0.,0.,0.00179790,0.,0.,0.00401303,0.,0.,-0.00094118,0.,
 0.,0.00368179,0.,0.,0.00495241,0.,0.,-0.02176203,0.,0.,0.00975786,0.00
 588303,-0.01949491,0.,-0.03498077,0.00372385,0.,-0.00202147,0.02579518
 ,0.,-0.00343632,-0.00145750,0.,0.00093729,0.00021829,0.,-0.00323476,-0
 .00071043,0.,-0.00003193,-0.00061682,0.,0.04148469,-0.01058241,-0.0401
 8077,0.,0.02149357,-0.19336550,0.,0.00262879,-0.03186098,0.,0.00108053
 ,0.00202945,0.,0.00128407,-0.00018195,0.,-0.00042063,0.00244942,0.,-0.
 00039289,-0.00069133,0.,-0.01636253,0.26461092,0.,0.,0.00179790,0.,0.,
 -0.02176203,0.,0.,0.00495241,0.,0.,0.00368179,0.,0.,-0.00094118,0.,0.,
 0.00401303,0.,0.,-0.00027990,0.,0.,0.00975786,-0.00326212,0.00424986,0
 .,-0.03955038,-0.02239197,0.,-0.15318711,-0.07212653,0.,-0.01511931,-0
 .01140292,0.,0.00155297,0.00154237,0.,0.00153570,-0.00035395,0.,-0.001
 63263,-0.00098867,0.,-0.00448917,0.00037594,0.,0.21127571,0.00107534,0
 .00005290,0.,-0.00051498,0.00061878,0.,-0.07104918,-0.08227462,0.,-0.0
 3180437,-0.02145329,0.,0.00381594,-0.00165707,0.,-0.00014828,-0.000079
 56,0.,-0.00101173,-0.00045478,0.,0.00754646,0.00055908,0.,0.09731455,0
 .11509985,0.,0.,0.00401413,0.,0.,0.00416613,0.,0.,-0.02179428,0.,0.,0.
 00299605,0.,0.,0.00408200,0.,0.,-0.00144985,0.,0.,0.00004036,0.,0.,-0.
 00130973,0.,0.,0.01015011,-0.00153733,0.00109661,0.,0.00232433,-0.0010
 8930,0.,-0.01829016,0.01241499,0.,-0.16154799,0.06648626,0.,-0.0404454
 8,0.01882959,0.,0.00094108,-0.00436823,0.,-0.00179358,0.00018176,0.,-0
 .00021947,0.00076997,0.,0.00282380,-0.00404778,0.,0.22357553,0.0010966
 1,-0.00010501,0.,-0.00346487,-0.00262303,0.,0.03329847,-0.02004073,0.,
 0.06648626,-0.07470821,0.,-0.00205389,0.00211460,0.,-0.00199265,-0.001
 23979,0.,-0.00025803,0.00040207,0.,0.00120975,-0.00117204,0.,0.0044498
 2,-0.00925928,0.,-0.08907172,0.10723618,0.,0.,-0.00115886,0.,0.,0.0041
 7409,0.,0.,0.00320528,0.,0.,-0.02247591,0.,0.,0.00320528,0.,0.,0.00417
 409,0.,0.,0.00004948,0.,0.,0.00004948,0.,0.,-0.00106543,0.,0.,0.010907
 92,-0.00337616,0.00100086,0.,0.00063330,-0.00073761,0.,-0.00315042,0.0
 0074431,0.,0.00022124,-0.02178599,0.,-0.03792862,0.00422216,0.,-0.0009
 0397,0.02472366,0.,-0.00457722,0.00748896,0.,0.00010887,0.00012558,0.,
 0.00005254,-0.00117595,0.,-0.00583073,-0.00969975,0.,0.05475117,0.0041
 7539,0.00016695,0.,-0.00094327,0.00082285,0.,-0.00152925,0.00304632,0.
 ,-0.00138453,-0.03679384,0.,0.00314482,-0.19753311,0.,0.00284667,-0.03
 802764,0.,0.00031844,0.00064713,0.,0.00014865,-0.00219629,0.,-0.000668
 50,-0.00115200,0.,-0.00120216,-0.00060475,0.,-0.00490624,0.27162439,0.
 ,0.,0.00401413,0.,0.,-0.00144985,0.,0.,0.00408200,0.,0.,0.00299605,0.,
 0.,-0.02179428,0.,0.,0.00416613,0.,0.,-0.00130973,0.,0.,0.00004036,0.,
 0.,0.00017051,0.,0.,-0.00106543,0.,0.,0.01015011\\-0.00006502,0.000035
 20,0.,0.00006138,-0.00001490,0.,-0.00008320,-0.00009715,0.,-0.00007136
 ,0.00003863,0.,0.00003585,0.00012278,0.,0.00004603,-0.00004325,0.,-0.0
 0005392,-0.00000663,0.,-0.00002393,0.00004877,0.,0.00008678,0.00003232
 ,0.,0.00004701,-0.00002544,0.,0.00002038,-0.00009033,0.\\\@


 WE HAVE LEFT UNDONE THOSE THINGS WHICH WE OUGHT TO HAVE DONE,
 AND WE HAVE DONE THOSE THINGS WHICH WE OUGHT NOT TO HAVE DONE.
                   BOOK OF COMMON PRAYER                      
 Job cpu time:       0 days  0 hours 42 minutes 30.0 seconds.
 Elapsed time:       0 days  0 hours 10 minutes 39.1 seconds.
 File lengths (MBytes):  RWF=    261 Int=      0 D2E=      0 Chk=     34 Scr=      1
 Normal termination of Gaussian 16 at Tue Dec  9 13:48:29 2025.
