 Entering Gaussian System, Link 0=g16
 Initial command:
 /share/software/user/restricted/gaussian/g16.B01/l1.exe "/home/users/jlapier/Chloroaromatics/Gau-17603.inp" -scrdir="/home/users/jlapier/Chloroaromatics/"
 Entering Link 1 = /share/software/user/restricted/gaussian/g16.B01/l1.exe PID=     17604.
  
 Copyright (c) 1988-2017, Gaussian, Inc.  All Rights Reserved.
  
 This is part of the Gaussian(R) 16 program.  It is based on
 the Gaussian(R) 09 system (copyright 2009, Gaussian, Inc.),
 the Gaussian(R) 03 system (copyright 2003, Gaussian, Inc.),
 the Gaussian(R) 98 system (copyright 1998, Gaussian, Inc.),
 the Gaussian(R) 94 system (copyright 1995, Gaussian, Inc.),
 the Gaussian 92(TM) system (copyright 1992, Gaussian, Inc.),
 the Gaussian 90(TM) system (copyright 1990, Gaussian, Inc.),
 the Gaussian 88(TM) system (copyright 1988, Gaussian, Inc.),
 the Gaussian 86(TM) system (copyright 1986, Carnegie Mellon
 University), and the Gaussian 82(TM) system (copyright 1983,
 Carnegie Mellon University). Gaussian is a federally registered
 trademark of Gaussian, Inc.
  
 This software contains proprietary and confidential information,
 including trade secrets, belonging to Gaussian, Inc.
  
 This software is provided under written license and may be
 used, copied, transmitted, or stored only in accord with that
 written license.
  
 The following legend is applicable only to US Government
 contracts under FAR:
  
                    RESTRICTED RIGHTS LEGEND
  
 Use, reproduction and disclosure by the US Government is
 subject to restrictions as set forth in subparagraphs (a)
 and (c) of the Commercial Computer Software - Restricted
 Rights clause in FAR 52.227-19.
  
 Gaussian, Inc.
 340 Quinnipiac St., Bldg. 40, Wallingford CT 06492
  
  
 ---------------------------------------------------------------
 Warning -- This program may not be used in any manner that
 competes with the business of Gaussian, Inc. or will provide
 assistance to any competitor of Gaussian, Inc.  The licensee
 of this program is prohibited from giving any competitor of
 Gaussian, Inc. access to this program.  By using this program,
 the user acknowledges that Gaussian, Inc. is engaged in the
 business of creating and licensing software in the field of
 computational chemistry and represents and warrants to the
 licensee that it is not a competitor of Gaussian, Inc. and that
 it will not use this program in any manner prohibited above.
 ---------------------------------------------------------------
  

 Cite this work as:
 Gaussian 16, Revision B.01,
 M. J. Frisch, G. W. Trucks, H. B. Schlegel, G. E. Scuseria, 
 M. A. Robb, J. R. Cheeseman, G. Scalmani, V. Barone, 
 G. A. Petersson, H. Nakatsuji, X. Li, M. Caricato, A. V. Marenich, 
 J. Bloino, B. G. Janesko, R. Gomperts, B. Mennucci, H. P. Hratchian, 
 J. V. Ortiz, A. F. Izmaylov, J. L. Sonnenberg, D. Williams-Young, 
 F. Ding, F. Lipparini, F. Egidi, J. Goings, B. Peng, A. Petrone, 
 T. Henderson, D. Ranasinghe, V. G. Zakrzewski, J. Gao, N. Rega, 
 G. Zheng, W. Liang, M. Hada, M. Ehara, K. Toyota, R. Fukuda, 
 J. Hasegawa, M. Ishida, T. Nakajima, Y. Honda, O. Kitao, H. Nakai, 
 T. Vreven, K. Throssell, J. A. Montgomery, Jr., J. E. Peralta, 
 F. Ogliaro, M. J. Bearpark, J. J. Heyd, E. N. Brothers, K. N. Kudin, 
 V. N. Staroverov, T. A. Keith, R. Kobayashi, J. Normand, 
 K. Raghavachari, A. P. Rendell, J. C. Burant, S. S. Iyengar, 
 J. Tomasi, M. Cossi, J. M. Millam, M. Klene, C. Adamo, R. Cammi, 
 J. W. Ochterski, R. L. Martin, K. Morokuma, O. Farkas, 
 J. B. Foresman, and D. J. Fox, Gaussian, Inc., Wallingford CT, 2016.
 
 ******************************************
 Gaussian 16:  ES64L-G16RevB.01 20-Dec-2017
                 9-Dec-2025 
 ******************************************
 %mem=8GB
 %nprocshare=4
 Will use up to    4 processors via shared memory.
 %oldchk=geometry_chks/1_3ClBzNeutralRadical.chk
 %chk=frequency_chks/1_3ClBzNeutralRadical_Freq.chk
 Copying data from "geometry_chks/1_3ClBzNeutralRadical.chk" to current chk file "frequency_chks/1_3ClBzNeutralRadical_Freq.chk"
 IOpt=  2 FromEx=T IUOpen= 4 IOptOp= 5 NList=   0 IFRang= 0 IUIn= 4 IUOut= 2.
 -------------------------------------------------------
 # opt freq 6-311++g(d,p) guess=read geom=allcheck m062x
 -------------------------------------------------------
 1/18=20,19=15,26=3,29=7,38=1/1,3;
 2/9=110,12=2,40=1/2;
 3/5=4,6=6,7=1111,11=2,14=-4,25=1,30=1,71=1,74=-55,116=-2/1,2,3;
 4/5=1/1;
 5/5=2,38=6/2;
 6/7=2,8=2,9=2,10=2,28=1/1;
 7//1,2,3,16;
 1/18=20,19=15,26=3/3(2);
 2/9=110/2;
 99//99;
 2/9=110/2;
 3/5=4,6=6,7=1111,11=2,14=-2,25=1,30=1,71=1,74=-55/1,2,3;
 4/5=5,16=3,69=1/1;
 5/5=2,38=5/2;
 7//1,2,3,16;
 1/18=20,19=15,26=3/3(-5);
 2/9=110/2;
 6/7=2,8=2,9=2,10=2,19=2,28=1/1;
 99/9=1/99;
 Structure from the checkpoint file:  "frequency_chks/1_3ClBzNeutralRadical_Freq.chk"
 -------------------------------
 Neutral Radical (removed 2) 1_3
 -------------------------------
 Charge =  0 Multiplicity = 2
 Redundant internal coordinates found in file.  (old form).
 C,0,-3.0216655682,0.0978559676,0.
 C,0,-1.904613439,0.9000130159,0.
 C,0,-0.666920213,0.2181954279,0.
 C,0,-0.6552998243,-1.1830416092,0.
 C,0,-1.8348654955,-1.939492948,0.
 C,0,-3.0824896546,-1.2760294845,0.
 Cl,0,-4.5415860741,-2.1155043021,0.
 Cl,0,-1.9995727749,2.5806863724,0.
 H,0,0.2751213079,0.7846133509,0.
 H,0,0.3131374754,-1.7072528451,0.
 H,0,-1.7940157398,-3.0377429457,0.
 Recover connectivity data from disk.

 GradGradGradGradGradGradGradGradGradGradGradGradGradGradGradGradGradGrad
 Berny optimization.
 Initialization pass.
                           ----------------------------
                           !    Initial Parameters    !
                           ! (Angstroms and Degrees)  !
 --------------------------                            --------------------------
 ! Name  Definition              Value          Derivative Info.                !
 --------------------------------------------------------------------------------
 ! R1    R(1,2)                  1.3752         estimate D2E/DX2                !
 ! R2    R(1,6)                  1.3752         estimate D2E/DX2                !
 ! R3    R(2,3)                  1.4131         estimate D2E/DX2                !
 ! R4    R(2,8)                  1.6834         estimate D2E/DX2                !
 ! R5    R(3,4)                  1.4013         estimate D2E/DX2                !
 ! R6    R(3,9)                  1.0992         estimate D2E/DX2                !
 ! R7    R(4,5)                  1.4013         estimate D2E/DX2                !
 ! R8    R(4,10)                 1.1012         estimate D2E/DX2                !
 ! R9    R(5,6)                  1.4131         estimate D2E/DX2                !
 ! R10   R(5,11)                 1.099          estimate D2E/DX2                !
 ! R11   R(6,7)                  1.6834         estimate D2E/DX2                !
 ! A1    A(2,1,6)              128.2171         estimate D2E/DX2                !
 ! A2    A(1,2,3)              115.4684         estimate D2E/DX2                !
 ! A3    A(1,2,8)              122.4484         estimate D2E/DX2                !
 ! A4    A(3,2,8)              122.0832         estimate D2E/DX2                !
 ! A5    A(2,3,4)              119.3245         estimate D2E/DX2                !
 ! A6    A(2,3,9)              120.1335         estimate D2E/DX2                !
 ! A7    A(4,3,9)              120.5419         estimate D2E/DX2                !
 ! A8    A(3,4,5)              122.1968         estimate D2E/DX2                !
 ! A9    A(3,4,10)             118.9016         estimate D2E/DX2                !
 ! A10   A(5,4,10)             118.9016         estimate D2E/DX2                !
 ! A11   A(4,5,6)              119.3249         estimate D2E/DX2                !
 ! A12   A(4,5,11)             120.5418         estimate D2E/DX2                !
 ! A13   A(6,5,11)             120.1334         estimate D2E/DX2                !
 ! A14   A(1,6,5)              115.4683         estimate D2E/DX2                !
 ! A15   A(1,6,7)              122.4484         estimate D2E/DX2                !
 ! A16   A(5,6,7)              122.0833         estimate D2E/DX2                !
 ! D1    D(6,1,2,3)              0.0            estimate D2E/DX2                !
 ! D2    D(6,1,2,8)            180.0            estimate D2E/DX2                !
 ! D3    D(2,1,6,5)              0.0            estimate D2E/DX2                !
 ! D4    D(2,1,6,7)            180.0            estimate D2E/DX2                !
 ! D5    D(1,2,3,4)              0.0            estimate D2E/DX2                !
 ! D6    D(1,2,3,9)            180.0            estimate D2E/DX2                !
 ! D7    D(8,2,3,4)            180.0            estimate D2E/DX2                !
 ! D8    D(8,2,3,9)              0.0            estimate D2E/DX2                !
 ! D9    D(2,3,4,5)              0.0            estimate D2E/DX2                !
 ! D10   D(2,3,4,10)           180.0            estimate D2E/DX2                !
 ! D11   D(9,3,4,5)            180.0            estimate D2E/DX2                !
 ! D12   D(9,3,4,10)             0.0            estimate D2E/DX2                !
 ! D13   D(3,4,5,6)              0.0            estimate D2E/DX2                !
 ! D14   D(3,4,5,11)           180.0            estimate D2E/DX2                !
 ! D15   D(10,4,5,6)           180.0            estimate D2E/DX2                !
 ! D16   D(10,4,5,11)            0.0            estimate D2E/DX2                !
 ! D17   D(4,5,6,1)              0.0            estimate D2E/DX2                !
 ! D18   D(4,5,6,7)            180.0            estimate D2E/DX2                !
 ! D19   D(11,5,6,1)           180.0            estimate D2E/DX2                !
 ! D20   D(11,5,6,7)             0.0            estimate D2E/DX2                !
 --------------------------------------------------------------------------------
 Trust Radius=3.00D-01 FncErr=1.00D-07 GrdErr=1.00D-06 EigMax=2.50D+02 EigMin=1.00D-04
 Number of steps in this run=     57 maximum allowed number of steps=    100.
 GradGradGradGradGradGradGradGradGradGradGradGradGradGradGradGradGradGrad

                          Input orientation:                          
 ---------------------------------------------------------------------
 Center     Atomic      Atomic             Coordinates (Angstroms)
 Number     Number       Type             X           Y           Z
 ---------------------------------------------------------------------
      1          6           0       -3.021666    0.097856    0.000000
      2          6           0       -1.904613    0.900013    0.000000
      3          6           0       -0.666920    0.218195    0.000000
      4          6           0       -0.655300   -1.183042    0.000000
      5          6           0       -1.834865   -1.939493    0.000000
      6          6           0       -3.082490   -1.276029    0.000000
      7         17           0       -4.541586   -2.115504    0.000000
      8         17           0       -1.999573    2.580686    0.000000
      9          1           0        0.275121    0.784613    0.000000
     10          1           0        0.313137   -1.707253    0.000000
     11          1           0       -1.794016   -3.037743    0.000000
 ---------------------------------------------------------------------
                    Distance matrix (angstroms):
                    1          2          3          4          5
     1  C    0.000000
     2  C    1.375231   0.000000
     3  C    2.357818   1.413067   0.000000
     4  C    2.690796   2.428971   1.401285   0.000000
     5  C    2.357814   2.840362   2.453511   1.401283   0.000000
     6  C    1.375231   2.474379   2.840367   2.428970   1.413064
     7  Cl   2.684981   4.005867   4.523184   3.996587   2.712437
     8  Cl   2.684981   1.683354   2.712439   3.996588   4.523179
     9  H    3.367557   2.182787   1.099214   2.176545   3.445693
    10  H    3.792009   3.422901   2.160524   1.101212   2.160521
    11  H    3.367359   3.939309   3.445501   2.176371   1.099009
                    6          7          8          9         10
     6  C    0.000000
     7  Cl   1.683354   0.000000
     8  Cl   4.005866   5.340041   0.000000
     9  H    3.939518   5.622397   2.898295   0.000000
    10  H    3.422899   4.871859   4.871863   2.492156   0.000000
    11  H    2.182613   2.898218   5.622188   4.346462   2.492047
                   11
    11  H    0.000000
 Stoichiometry    C6H3Cl2(2)
 Framework group  CS[SG(C6H3Cl2)]
 Deg. of freedom    19
 Full point group                 CS      NOp   2
 Largest Abelian subgroup         CS      NOp   2
 Largest concise Abelian subgroup C1      NOp   1
                         Standard orientation:                         
 ---------------------------------------------------------------------
 Center     Atomic      Atomic             Coordinates (Angstroms)
 Number     Number       Type             X           Y           Z
 ---------------------------------------------------------------------
      1          6           0        0.000000    0.641464    0.000000
      2          6           0        1.237187    0.040940    0.000000
      3          6           0        1.226749   -1.372089    0.000000
      4          6           0       -0.000011   -2.049333    0.000000
      5          6           0       -1.226762   -1.372076    0.000000
      6          6           0       -1.237192    0.040950    0.000000
      7         17           0       -2.670020    0.924514    0.000000
      8         17           0        2.670021    0.924494    0.000000
      9          1           0        2.173311   -1.930921    0.000000
     10          1           0       -0.000018   -3.150545    0.000000
     11          1           0       -2.173152   -1.930795    0.000000
 ---------------------------------------------------------------------
 Rotational constants (GHZ):           2.8500257           0.8699033           0.6664769
 Standard basis: 6-311++G(d,p) (5D, 7F)
 There are   166 symmetry adapted cartesian basis functions of A'  symmetry.
 There are    55 symmetry adapted cartesian basis functions of A"  symmetry.
 There are   158 symmetry adapted basis functions of A'  symmetry.
 There are    55 symmetry adapted basis functions of A"  symmetry.
   213 basis functions,   349 primitive gaussians,   221 cartesian basis functions
    37 alpha electrons       36 beta electrons
       nuclear repulsion energy       439.3671743459 Hartrees.
 NAtoms=   11 NActive=   11 NUniq=   11 SFac= 1.00D+00 NAtFMM=   60 NAOKFM=F Big=F
 Integral buffers will be    131072 words long.
 Raffenetti 2 integral format.
 Two-electron integral symmetry is turned on.
 One-electron integrals computed using PRISM.
 NBasis=   213 RedAO= T EigKep=  1.35D-06  NBF=   158    55
 NBsUse=   213 1.00D-06 EigRej= -1.00D+00 NBFU=   158    55
 Initial guess from the checkpoint file:  "frequency_chks/1_3ClBzNeutralRadical_Freq.chk"
 B after Tr=    -0.000000    0.000000    0.000000
         Rot=    1.000000    0.000000   -0.000000   -0.000000 Ang=   0.00 deg.
 Initial guess orbital symmetries:
 Alpha Orbitals:
       Occupied  (A') (A') (A') (A') (A') (A') (A') (A') (A') (A')
                 (A') (A") (A') (A") (A') (A') (A") (A') (A') (A")
                 (A") (A") (A") (A') (A') (A") (A') (A') (A') (A')
                 (A') (A') (A') (A') (A') (A') (A')
       Virtual   (A') (A') (A') (A') (A') (A') (A') (A') (A') (A')
                 (A') (A') (A') (A') (A') (A') (A') (A') (A') (A')
                 (A') (A') (A') (A') (A') (A') (A') (A') (A') (A')
                 (A') (A') (A') (A') (A') (A') (A') (A') (A') (A')
                 (A') (A') (A') (A') (A') (A') (A') (A') (A') (A')
                 (A') (A') (A') (A') (A') (A') (A') (A') (A') (A')
                 (A') (A') (A') (A') (A') (A') (A') (A') (A') (A')
                 (A') (A') (A') (A') (A') (A') (A') (A') (A') (A')
                 (A') (A') (A') (A') (A') (A') (A') (A') (A') (A')
                 (A') (A') (A') (A') (A') (A') (A') (A') (A') (A')
                 (A') (A') (A') (A') (A') (A') (A') (A') (A') (A')
                 (A') (A') (A') (A') (A') (A') (A') (A') (A') (A')
                 (A') (A') (A') (A') (A') (A') (A') (A') (A') (A")
                 (A") (A") (A") (A") (A") (A") (A") (A") (A") (A")
                 (A") (A") (A") (A") (A") (A") (A") (A") (A") (A")
                 (A") (A") (A") (A") (A") (A") (A") (A") (A") (A")
                 (A") (A") (A") (A") (A") (A") (A") (A") (A") (A")
                 (A") (A") (A") (A") (A") (A")
 Beta  Orbitals:
       Occupied  (A') (A') (A') (A') (A') (A') (A') (A') (A') (A')
                 (A') (A") (A') (A") (A') (A") (A') (A') (A") (A")
                 (A') (A") (A") (A') (A') (A") (A') (A') (A') (A')
                 (A') (A') (A') (A') (A') (A')
       Virtual   (A') (A') (A') (A') (A') (A') (A') (A') (A') (A')
                 (A') (A') (A') (A') (A') (A') (A') (A') (A') (A')
                 (A') (A') (A') (A') (A') (A') (A') (A') (A') (A')
                 (A') (A') (A') (A') (A') (A') (A') (A') (A') (A')
                 (A') (A') (A') (A') (A') (A') (A') (A') (A') (A')
                 (A') (A') (A') (A') (A') (A') (A') (A') (A') (A')
                 (A') (A') (A') (A') (A') (A') (A') (A') (A') (A')
                 (A') (A') (A') (A') (A') (A') (A') (A') (A') (A')
                 (A') (A') (A') (A') (A') (A') (A') (A') (A') (A')
                 (A') (A') (A') (A') (A') (A') (A') (A') (A') (A')
                 (A') (A') (A') (A') (A') (A') (A') (A') (A') (A')
                 (A') (A') (A') (A') (A') (A') (A') (A') (A') (A')
                 (A') (A') (A') (A') (A') (A') (A') (A') (A') (A')
                 (A") (A") (A") (A") (A") (A") (A") (A") (A") (A")
                 (A") (A") (A") (A") (A") (A") (A") (A") (A") (A")
                 (A") (A") (A") (A") (A") (A") (A") (A") (A") (A")
                 (A") (A") (A") (A") (A") (A") (A") (A") (A") (A")
                 (A") (A") (A") (A") (A") (A") (A")
 Initial guess <Sx>= 0.0000 <Sy>= 0.0000 <Sz>= 0.5000 <S**2>= 0.7500 S= 0.5000
 Keep R1 and R2 ints in memory in symmetry-blocked form, NReq=411615841.
 Requested convergence on RMS density matrix=1.00D-08 within 128 cycles.
 Requested convergence on MAX density matrix=1.00D-06.
 Requested convergence on             energy=1.00D-06.
 No special actions if energy rises.
 SCF Done:  E(UM062X) =  -1150.70371883     A.U. after   25 cycles
            NFock= 25  Conv=0.88D-08     -V/T= 2.0025
 <Sx>= 0.0000 <Sy>= 0.0000 <Sz>= 0.5000 <S**2>= 0.7629 S= 0.5064
 <L.S>=  0.00000000000    
 Annihilation of the first spin contaminant:
 S**2 before annihilation     0.7629,   after     0.7501

 **********************************************************************

            Population analysis using the SCF Density.

 **********************************************************************

 Orbital symmetries:
 Alpha Orbitals:
       Occupied  (A') (A') (A') (A') (A') (A') (A') (A') (A') (A')
                 (A') (A') (A") (A") (A') (A') (A') (A') (A') (A')
                 (A') (A') (A') (A') (A') (A') (A') (A") (A') (A')
                 (A") (A") (A') (A') (A') (A") (A")
       Virtual   (A") (A") (A') (A') (A') (A') (A') (A") (A') (A')
                 (A') (A") (A") (A') (A') (A") (A') (A') (A") (A')
                 (A') (A") (A') (A') (A') (A") (A') (A') (A") (A")
                 (A') (A') (A') (A') (A') (A') (A') (A') (A') (A')
                 (A') (A') (A') (A') (A') (A') (A') (A') (A') (A")
                 (A") (A') (A') (A') (A') (A") (A') (A') (A") (A')
                 (A") (A') (A") (A") (A') (A') (A") (A') (A') (A')
                 (A') (A') (A") (A') (A') (A') (A") (A') (A') (A")
                 (A') (A") (A') (A') (A') (A') (A') (A') (A") (A")
                 (A') (A") (A') (A') (A') (A") (A') (A') (A") (A")
                 (A') (A') (A') (A') (A") (A') (A") (A') (A') (A")
                 (A') (A') (A") (A') (A") (A') (A") (A') (A") (A')
                 (A') (A') (A") (A') (A") (A") (A') (A") (A') (A')
                 (A') (A') (A') (A') (A') (A") (A') (A') (A') (A')
                 (A') (A') (A") (A") (A") (A") (A') (A") (A') (A')
                 (A') (A') (A') (A') (A') (A') (A') (A') (A') (A')
                 (A') (A') (A') (A') (A') (A') (A') (A') (A") (A")
                 (A') (A') (A') (A') (A') (A')
 Beta  Orbitals:
       Occupied  (A') (A') (A') (A') (A') (A') (A') (A') (A') (A')
                 (A') (A') (A") (A") (A') (A') (A') (A') (A') (A')
                 (A') (A') (A') (A') (A') (A') (A') (A") (A') (A')
                 (A") (A") (A') (A') (A") (A")
       Virtual   (A') (A") (A') (A") (A') (A') (A') (A') (A') (A")
                 (A') (A') (A") (A") (A') (A') (A') (A") (A') (A")
                 (A') (A') (A") (A') (A') (A') (A") (A') (A') (A")
                 (A') (A") (A') (A') (A') (A') (A') (A') (A') (A')
                 (A') (A') (A') (A') (A') (A') (A') (A') (A') (A')
                 (A") (A") (A') (A') (A') (A') (A') (A") (A') (A')
                 (A") (A") (A') (A") (A") (A') (A') (A") (A') (A')
                 (A') (A') (A') (A") (A') (A') (A") (A') (A') (A')
                 (A") (A') (A') (A") (A') (A') (A') (A') (A') (A")
                 (A") (A') (A") (A') (A') (A') (A") (A') (A') (A")
                 (A") (A') (A') (A') (A") (A') (A') (A") (A') (A')
                 (A") (A') (A') (A") (A') (A") (A') (A") (A') (A")
                 (A') (A') (A') (A") (A') (A") (A") (A') (A") (A')
                 (A') (A') (A') (A') (A') (A') (A") (A') (A') (A')
                 (A') (A') (A') (A") (A") (A") (A") (A') (A") (A')
                 (A') (A') (A') (A') (A') (A') (A') (A') (A') (A')
                 (A') (A') (A') (A') (A') (A') (A') (A') (A') (A")
                 (A") (A') (A') (A') (A') (A') (A')
 The electronic state is 2-A'.
 Alpha  occ. eigenvalues -- -102.69392-102.69392 -10.63151 -10.63151 -10.60006
 Alpha  occ. eigenvalues --  -10.58052 -10.58047 -10.57637  -9.83732  -9.83732
 Alpha  occ. eigenvalues --   -7.56288  -7.56288  -7.55550  -7.55550  -7.55546
 Alpha  occ. eigenvalues --   -7.55546  -1.03727  -1.00550  -0.94515  -0.85888
 Alpha  occ. eigenvalues --   -0.84337  -0.70749  -0.70467  -0.60351  -0.57595
 Alpha  occ. eigenvalues --   -0.55078  -0.52762  -0.50739  -0.48783  -0.45859
 Alpha  occ. eigenvalues --   -0.45290  -0.40083  -0.39989  -0.39251  -0.33806
 Alpha  occ. eigenvalues --   -0.33334  -0.31053
 Alpha virt. eigenvalues --   -0.01476  -0.00564  -0.00469   0.01287   0.02174
 Alpha virt. eigenvalues --    0.03895   0.04544   0.05394   0.05511   0.06441
 Alpha virt. eigenvalues --    0.07846   0.08260   0.08723   0.09220   0.10181
 Alpha virt. eigenvalues --    0.11859   0.11953   0.11954   0.11992   0.13003
 Alpha virt. eigenvalues --    0.13502   0.13702   0.13802   0.15080   0.15160
 Alpha virt. eigenvalues --    0.15651   0.16912   0.17546   0.18057   0.19084
 Alpha virt. eigenvalues --    0.19312   0.20240   0.21357   0.22582   0.22677
 Alpha virt. eigenvalues --    0.22972   0.25168   0.26274   0.26679   0.28058
 Alpha virt. eigenvalues --    0.28420   0.29857   0.30536   0.32598   0.33423
 Alpha virt. eigenvalues --    0.34618   0.36998   0.44436   0.44529   0.47211
 Alpha virt. eigenvalues --    0.48457   0.49203   0.49623   0.51016   0.53583
 Alpha virt. eigenvalues --    0.55033   0.56256   0.57148   0.58807   0.59913
 Alpha virt. eigenvalues --    0.61039   0.61918   0.63191   0.63784   0.64069
 Alpha virt. eigenvalues --    0.67110   0.69230   0.70659   0.74265   0.75344
 Alpha virt. eigenvalues --    0.78314   0.80009   0.85941   0.86723   0.87320
 Alpha virt. eigenvalues --    0.87339   0.87516   0.89826   0.90433   0.90881
 Alpha virt. eigenvalues --    0.90967   0.92253   0.92640   0.94939   0.98529
 Alpha virt. eigenvalues --    0.99521   1.00136   1.02681   1.03028   1.06732
 Alpha virt. eigenvalues --    1.08957   1.13977   1.15802   1.22814   1.24129
 Alpha virt. eigenvalues --    1.24149   1.27252   1.27999   1.29524   1.36026
 Alpha virt. eigenvalues --    1.43283   1.50276   1.52868   1.56533   1.57597
 Alpha virt. eigenvalues --    1.60964   1.65099   1.67155   1.69982   1.74182
 Alpha virt. eigenvalues --    1.79729   1.79872   1.86729   1.88653   1.91121
 Alpha virt. eigenvalues --    1.93498   1.94026   1.94559   1.99128   2.03026
 Alpha virt. eigenvalues --    2.07246   2.15954   2.19360   2.23541   2.29574
 Alpha virt. eigenvalues --    2.31868   2.32354   2.32393   2.37830   2.43473
 Alpha virt. eigenvalues --    2.46333   2.47177   2.51049   2.56936   2.59533
 Alpha virt. eigenvalues --    2.68162   2.70706   2.71353   2.72720   2.73499
 Alpha virt. eigenvalues --    2.77124   2.78450   2.80068   2.83509   2.91233
 Alpha virt. eigenvalues --    2.92603   3.00428   3.10116   3.15513   3.21363
 Alpha virt. eigenvalues --    3.30722   3.35363   3.39525   3.50131   3.64810
 Alpha virt. eigenvalues --    3.79192   4.01564   4.06424   4.10444   4.77164
 Alpha virt. eigenvalues --    9.96430   9.99446  23.45784  23.92840  23.94280
 Alpha virt. eigenvalues --   24.05621  24.12543  24.17595  25.92518  25.92643
 Alpha virt. eigenvalues --   26.15574  26.27331  26.70663  26.72885 216.06303
 Alpha virt. eigenvalues --  216.09858
  Beta  occ. eigenvalues -- -102.69362-102.69362 -10.63189 -10.63188 -10.59026
  Beta  occ. eigenvalues --  -10.57994 -10.57986 -10.57660  -9.83719  -9.83719
  Beta  occ. eigenvalues --   -7.56213  -7.56212  -7.55557  -7.55557  -7.55523
  Beta  occ. eigenvalues --   -7.55523  -1.03027  -1.00371  -0.94255  -0.84145
  Beta  occ. eigenvalues --   -0.84048  -0.70208  -0.69230  -0.59467  -0.56959
  Beta  occ. eigenvalues --   -0.54387  -0.52462  -0.50120  -0.47780  -0.45518
  Beta  occ. eigenvalues --   -0.45363  -0.40124  -0.39616  -0.39009  -0.31697
  Beta  occ. eigenvalues --   -0.31076
  Beta virt. eigenvalues --   -0.08354  -0.01536  -0.00527   0.00471   0.01296
  Beta virt. eigenvalues --    0.02538   0.03911   0.04081   0.04982   0.05241
  Beta virt. eigenvalues --    0.06013   0.07811   0.08272   0.08356   0.09134
  Beta virt. eigenvalues --    0.10364   0.11731   0.11953   0.11972   0.12024
  Beta virt. eigenvalues --    0.12981   0.13639   0.13740   0.13931   0.15117
  Beta virt. eigenvalues --    0.15182   0.15371   0.17043   0.17102   0.17966
  Beta virt. eigenvalues --    0.19039   0.19517   0.20150   0.21348   0.22273
  Beta virt. eigenvalues --    0.22968   0.23020   0.25217   0.25442   0.26393
  Beta virt. eigenvalues --    0.28059   0.28271   0.29985   0.30297   0.32636
  Beta virt. eigenvalues --    0.34061   0.34812   0.37675   0.44317   0.44349
  Beta virt. eigenvalues --    0.47338   0.48515   0.48904   0.49850   0.51107
  Beta virt. eigenvalues --    0.53950   0.54860   0.55134   0.57169   0.57438
  Beta virt. eigenvalues --    0.59116   0.61108   0.61385   0.63217   0.63720
  Beta virt. eigenvalues --    0.64511   0.69028   0.69066   0.71284   0.74014
  Beta virt. eigenvalues --    0.74317   0.78342   0.80180   0.86311   0.86666
  Beta virt. eigenvalues --    0.87284   0.87635   0.87640   0.89645   0.90365
  Beta virt. eigenvalues --    0.90939   0.91177   0.92106   0.92306   0.95416
  Beta virt. eigenvalues --    0.98775   0.98918   1.00222   1.02423   1.03560
  Beta virt. eigenvalues --    1.06683   1.08816   1.14271   1.16964   1.21823
  Beta virt. eigenvalues --    1.23160   1.25724   1.27143   1.28048   1.30725
  Beta virt. eigenvalues --    1.36551   1.43875   1.50765   1.53440   1.57629
  Beta virt. eigenvalues --    1.59287   1.61229   1.65211   1.67390   1.70300
  Beta virt. eigenvalues --    1.74395   1.80380   1.80421   1.87306   1.88857
  Beta virt. eigenvalues --    1.91569   1.93991   1.94443   1.94845   1.99537
  Beta virt. eigenvalues --    2.03585   2.07383   2.16959   2.19351   2.23917
  Beta virt. eigenvalues --    2.29585   2.31960   2.32555   2.32786   2.38836
  Beta virt. eigenvalues --    2.43564   2.46970   2.47203   2.51074   2.57047
  Beta virt. eigenvalues --    2.59850   2.68323   2.71095   2.72340   2.72778
  Beta virt. eigenvalues --    2.73628   2.77151   2.78577   2.80523   2.83469
  Beta virt. eigenvalues --    2.91383   2.92404   3.03928   3.10157   3.15823
  Beta virt. eigenvalues --    3.21370   3.30971   3.35718   3.39632   3.50177
  Beta virt. eigenvalues --    3.65619   3.79793   4.01637   4.06542   4.10779
  Beta virt. eigenvalues --    4.77399   9.96441   9.99447  23.45942  23.92926
  Beta virt. eigenvalues --   23.94293  24.05641  24.12981  24.17989  25.92522
  Beta virt. eigenvalues --   25.92646  26.15614  26.27370  26.70821  26.73106
  Beta virt. eigenvalues --  216.06348 216.09902
          Condensed to atoms (all electrons):
               1          2          3          4          5          6
     1  C   17.569727  -1.730605  -2.536447  -2.275841  -2.536595  -1.730117
     2  C   -1.730605  17.721781  -5.260187   2.008890  -5.958678   0.626100
     3  C   -2.536447  -5.260187  16.862718  -2.268525   4.348788  -5.958165
     4  C   -2.275841   2.008890  -2.268525   8.809139  -2.268406   2.008413
     5  C   -2.536595  -5.958678   4.348788  -2.268406  16.863181  -5.260171
     6  C   -1.730117   0.626100  -5.958165   2.008413  -5.260171  17.721223
     7  Cl  -0.374741  -0.020776   0.217842   0.077826   0.466275  -1.128611
     8  Cl  -0.374707  -1.128537   0.466154   0.077841   0.217833  -0.020747
     9  H   -0.066432  -0.189098   0.563755  -0.032887   0.104303  -0.082703
    10  H    0.082672   0.074860  -0.116454   0.351002  -0.116459   0.074863
    11  H   -0.066486  -0.082734   0.104337  -0.032903   0.563916  -0.189188
               7          8          9         10         11
     1  C   -0.374741  -0.374707  -0.066432   0.082672  -0.066486
     2  C   -0.020776  -1.128537  -0.189098   0.074860  -0.082734
     3  C    0.217842   0.466154   0.563755  -0.116454   0.104337
     4  C    0.077826   0.077841  -0.032887   0.351002  -0.032903
     5  C    0.466275   0.217833   0.104303  -0.116459   0.563916
     6  C   -1.128611  -0.020747  -0.082703   0.074863  -0.189188
     7  Cl  17.393743  -0.025626   0.000031  -0.009093   0.027519
     8  Cl  -0.025626  17.393734   0.027499  -0.009090   0.000031
     9  H    0.000031   0.027499   0.475160  -0.007436   0.001989
    10  H   -0.009093  -0.009090  -0.007436   0.460710  -0.007443
    11  H    0.027519   0.000031   0.001989  -0.007443   0.475184
          Atomic-Atomic Spin Densities.
               1          2          3          4          5          6
     1  C    3.970028  -2.110250   0.797668  -0.960565   0.797746  -2.110300
     2  C   -2.110250   1.004993  -0.667731   0.685960  -0.308110   1.704858
     3  C    0.797668  -0.667731   0.283591  -0.410165   0.262572  -0.308088
     4  C   -0.960565   0.685960  -0.410165   0.461710  -0.410192   0.685991
     5  C    0.797746  -0.308110   0.262572  -0.410192   0.283631  -0.667803
     6  C   -2.110300   1.704858  -0.308088   0.685991  -0.667803   1.005076
     7  Cl  -0.028469  -0.025354   0.025593  -0.017642   0.066514  -0.028027
     8  Cl  -0.028472  -0.028016   0.066507  -0.017638   0.025590  -0.025353
     9  H    0.051890  -0.013325  -0.005907  -0.029674   0.006806  -0.013462
    10  H    0.012260  -0.011990   0.006656  -0.000716   0.006657  -0.011989
    11  H    0.051902  -0.013463   0.006804  -0.029677  -0.005912  -0.013331
               7          8          9         10         11
     1  C   -0.028469  -0.028472   0.051890   0.012260   0.051902
     2  C   -0.025354  -0.028016  -0.013325  -0.011990  -0.013463
     3  C    0.025593   0.066507  -0.005907   0.006656   0.006804
     4  C   -0.017642  -0.017638  -0.029674  -0.000716  -0.029677
     5  C    0.066514   0.025590   0.006806   0.006657  -0.005912
     6  C   -0.028027  -0.025353  -0.013462  -0.011989  -0.013331
     7  Cl   0.023491   0.001063   0.000109  -0.000611  -0.002132
     8  Cl   0.001063   0.023489  -0.002133  -0.000610   0.000109
     9  H    0.000109  -0.002133   0.013892   0.000391   0.000235
    10  H   -0.000611  -0.000610   0.000391   0.001876   0.000390
    11  H   -0.002132   0.000109   0.000235   0.000390   0.013891
 Mulliken charges and spin densities:
               1          2
     1  C    0.039572   0.443439
     2  C   -0.061018   0.217572
     3  C   -0.423816   0.057500
     4  C   -0.454548  -0.042608
     5  C   -0.423986   0.057499
     6  C   -0.060898   0.217573
     7  Cl   0.375612   0.014536
     8  Cl   0.375616   0.014536
     9  H    0.205820   0.008823
    10  H    0.221867   0.002314
    11  H    0.205779   0.008817
 Sum of Mulliken charges =  -0.00000   1.00000
 Mulliken charges and spin densities with hydrogens summed into heavy atoms:
               1          2
     1  C    0.039572   0.443439
     2  C   -0.061018   0.217572
     3  C   -0.217995   0.066322
     4  C   -0.232681  -0.040294
     5  C   -0.218207   0.066316
     6  C   -0.060898   0.217573
     7  Cl   0.375612   0.014536
     8  Cl   0.375616   0.014536
 Electronic spatial extent (au):  <R**2>=           1506.1773
 Charge=             -0.0000 electrons
 Dipole moment (field-independent basis, Debye):
    X=             -0.0000    Y=             -2.2242    Z=              0.0000  Tot=              2.2242
 Quadrupole moment (field-independent basis, Debye-Ang):
   XX=            -58.9896   YY=            -55.0216   ZZ=            -62.7098
   XY=             -0.0001   XZ=              0.0000   YZ=              0.0000
 Traceless Quadrupole moment (field-independent basis, Debye-Ang):
   XX=             -0.0826   YY=              3.8854   ZZ=             -3.8028
   XY=             -0.0001   XZ=              0.0000   YZ=              0.0000
 Octapole moment (field-independent basis, Debye-Ang**2):
  XXX=              0.0000  YYY=             -8.6852  ZZZ=              0.0000  XYY=              0.0001
  XXY=             -2.3765  XXZ=              0.0000  XZZ=             -0.0005  YZZ=              5.9233
  YYZ=              0.0000  XYZ=              0.0000
 Hexadecapole moment (field-independent basis, Debye-Ang**3):
 XXXX=          -1337.2264 YYYY=           -486.6243 ZZZZ=            -73.1553 XXXY=              0.0017
 XXXZ=              0.0000 YYYX=              0.0032 YYYZ=              0.0000 ZZZX=              0.0000
 ZZZY=              0.0000 XXYY=           -290.8670 XXZZ=           -249.9640 YYZZ=           -109.8611
 XXYZ=              0.0000 YYXZ=              0.0000 ZZXY=              0.0020
 N-N= 4.393671743459D+02 E-N=-3.600592973286D+03  KE= 1.147825634148D+03
 Symmetry A'   KE= 1.049506657813D+03
 Symmetry A"   KE= 9.831897633416D+01
 Symmetry A'   SP= 1.000000000000D+00
 Symmetry A"   SP=-4.497449674235D-14
                          Isotropic Fermi Contact Couplings
        Atom                 a.u.       MegaHertz       Gauss      10(-4) cm-1
     1  C(13)              0.43087     484.37542     172.83720     161.57025
     2  C(13)             -0.01461     -16.42278      -5.86006      -5.47805
     3  C(13)              0.03239      36.41542      12.99393      12.14688
     4  C(13)             -0.00296      -3.32720      -1.18723      -1.10984
     5  C(13)              0.03239      36.41254      12.99290      12.14592
     6  C(13)             -0.01461     -16.42285      -5.86008      -5.47807
     7  Cl(35)             0.02090       9.16283       3.26953       3.05639
     8  Cl(35)             0.02090       9.16239       3.26937       3.05624
     9  H(1)               0.00399      17.85210       6.37007       5.95482
    10  H(1)               0.00053       2.35789       0.84135       0.78651
    11  H(1)               0.00399      17.84752       6.36844       5.95329
 --------------------------------------------------------
       Center         ----  Spin Dipole Couplings  ----
                      3XX-RR        3YY-RR        3ZZ-RR
 --------------------------------------------------------
     1   Atom       -0.577384      0.973323     -0.395939
     2   Atom        0.090048      0.014764     -0.104811
     3   Atom       -0.032514      0.037108     -0.004593
     4   Atom        0.017728      0.033677     -0.051405
     5   Atom       -0.032514      0.037110     -0.004596
     6   Atom        0.090048      0.014764     -0.104812
     7   Atom        0.195307     -0.058411     -0.136896
     8   Atom        0.195316     -0.058416     -0.136900
     9   Atom        0.003365      0.001544     -0.004909
    10   Atom        0.001154      0.001521     -0.002675
    11   Atom        0.003366      0.001544     -0.004910
 --------------------------------------------------------
                        XY            XZ            YZ
 --------------------------------------------------------
     1   Atom        0.000011      0.000000      0.000000
     2   Atom       -0.062591      0.000000      0.000000
     3   Atom       -0.011717      0.000000      0.000000
     4   Atom       -0.000000      0.000000      0.000000
     5   Atom        0.011725      0.000000      0.000000
     6   Atom        0.062592      0.000000      0.000000
     7   Atom       -0.042781      0.000000      0.000000
     8   Atom        0.042775      0.000000      0.000000
     9   Atom       -0.006617      0.000000      0.000000
    10   Atom       -0.000000      0.000000      0.000000
    11   Atom        0.006619      0.000000      0.000000
 --------------------------------------------------------


 ---------------------------------------------------------------------------------
              Anisotropic Spin Dipole Couplings in Principal Axis System
 ---------------------------------------------------------------------------------

       Atom             a.u.   MegaHertz   Gauss  10(-4) cm-1        Axes

              Baa    -0.5774   -77.479   -27.647   -25.844  1.0000 -0.0000 -0.0000
     1 C(13)  Bbb    -0.3959   -53.131   -18.959   -17.723  0.0000  0.0000  1.0000
              Bcc     0.9733   130.611    46.605    43.567  0.0000  1.0000  0.0000
 
              Baa    -0.1048   -14.065    -5.019    -4.691  0.0000  0.0000  1.0000
     2 C(13)  Bbb    -0.0206    -2.769    -0.988    -0.924  0.4923  0.8705  0.0000
              Bcc     0.1254    16.833     6.007     5.615  0.8705 -0.4923 -0.0000
 
              Baa    -0.0344    -4.621    -1.649    -1.541  0.9869  0.1616  0.0000
     3 C(13)  Bbb    -0.0046    -0.616    -0.220    -0.206  0.0000  0.0000  1.0000
              Bcc     0.0390     5.237     1.869     1.747 -0.1616  0.9869  0.0000
 
              Baa    -0.0514    -6.898    -2.461    -2.301  0.0000  0.0000  1.0000
     4 C(13)  Bbb     0.0177     2.379     0.849     0.794  1.0000  0.0000  0.0000
              Bcc     0.0337     4.519     1.613     1.507 -0.0000  1.0000  0.0000
 
              Baa    -0.0344    -4.621    -1.649    -1.541  0.9868 -0.1617 -0.0000
     5 C(13)  Bbb    -0.0046    -0.617    -0.220    -0.206  0.0000  0.0000  1.0000
              Bcc     0.0390     5.238     1.869     1.747  0.1617  0.9868  0.0000
 
              Baa    -0.1048   -14.065    -5.019    -4.692  0.0000  0.0000  1.0000
     6 C(13)  Bbb    -0.0206    -2.769    -0.988    -0.924 -0.4923  0.8705 -0.0000
              Bcc     0.1254    16.833     6.007     5.615  0.8705  0.4923  0.0000
 
              Baa    -0.1369    -7.165    -2.557    -2.390  0.0000  0.0000  1.0000
     7 Cl(35) Bbb    -0.0654    -3.424    -1.222    -1.142  0.1619  0.9868  0.0000
              Bcc     0.2023    10.589     3.779     3.532  0.9868 -0.1619 -0.0000
 
              Baa    -0.1369    -7.165    -2.557    -2.390  0.0000  0.0000  1.0000
     8 Cl(35) Bbb    -0.0654    -3.425    -1.222    -1.142 -0.1619  0.9868 -0.0000
              Bcc     0.2023    10.590     3.779     3.532  0.9868  0.1619  0.0000
 
              Baa    -0.0049    -2.619    -0.935    -0.874  0.0000  0.0000  1.0000
     9 H(1)   Bbb    -0.0042    -2.254    -0.804    -0.752  0.6571  0.7538  0.0000
              Bcc     0.0091     4.873     1.739     1.626  0.7538 -0.6571 -0.0000
 
              Baa    -0.0027    -1.427    -0.509    -0.476  0.0000  0.0000  1.0000
    10 H(1)   Bbb     0.0012     0.616     0.220     0.205  1.0000  0.0001  0.0000
              Bcc     0.0015     0.811     0.290     0.271 -0.0001  1.0000  0.0000
 
              Baa    -0.0049    -2.620    -0.935    -0.874  0.0000  0.0000  1.0000
    11 H(1)   Bbb    -0.0042    -2.255    -0.805    -0.752 -0.6571  0.7538 -0.0000
              Bcc     0.0091     4.875     1.739     1.626  0.7538  0.6571  0.0000
 

 ---------------------------------------------------------------------------------

 Calling FoFJK, ICntrl=      2127 FMM=F ISym2X=1 I1Cent= 0 IOpClX= 1 NMat=1 NMatS=1 NMatT=0.
 ***** Axes restored to original set *****
 -------------------------------------------------------------------
 Center     Atomic                   Forces (Hartrees/Bohr)
 Number     Number              X              Y              Z
 -------------------------------------------------------------------
      1        6          -0.008390634    0.004542109   -0.000000000
      2        6           0.011689942   -0.043443935   -0.000000000
      3        6          -0.000713926    0.002337072   -0.000000000
      4        6           0.002826751   -0.001525171   -0.000000000
      5        6          -0.002352235   -0.000561145   -0.000000000
      6        6           0.042765277    0.013972543   -0.000000000
      7       17          -0.022184905   -0.012184165   -0.000000000
      8       17          -0.001929546    0.025236812   -0.000000000
      9        1          -0.009595357   -0.004536117   -0.000000000
     10        1          -0.010671858    0.005776563   -0.000000000
     11        1          -0.001443510    0.010385434   -0.000000000
 -------------------------------------------------------------------
 Cartesian Forces:  Max     0.043443935 RMS     0.013271512

 GradGradGradGradGradGradGradGradGradGradGradGradGradGradGradGradGradGrad
 Berny optimization.
 FormGI is forming the generalized inverse of G from B-inverse, IUseBI=4.
 Internal  Forces:  Max     0.025305561 RMS     0.007282192
 Search for a local minimum.
 Step number   1 out of a maximum of   57
 All quantities printed in internal units (Hartrees-Bohrs-Radians)
 Mixed Optimization -- RFO/linear search
 Second derivative matrix not updated -- first step.
 ITU=  0
     Eigenvalues ---    0.01978   0.01984   0.02019   0.02023   0.02072
     Eigenvalues ---    0.02080   0.02116   0.02344   0.16000   0.16000
     Eigenvalues ---    0.16000   0.22067   0.23466   0.24919   0.25000
     Eigenvalues ---    0.25000   0.33548   0.33769   0.33792   0.37971
     Eigenvalues ---    0.37971   0.40695   0.42715   0.43522   0.45152
     Eigenvalues ---    0.48516   0.49602
 RFO step:  Lambda=-6.66950365D-03 EMin= 1.97813751D-02
 Linear search not attempted -- first point.
 Iteration  1 RMS(Cart)=  0.01748027 RMS(Int)=  0.00013939
 Iteration  2 RMS(Cart)=  0.00013042 RMS(Int)=  0.00003582
 Iteration  3 RMS(Cart)=  0.00000002 RMS(Int)=  0.00003582
 ClnCor:  largest displacement from symmetrization is 3.87D-09 for atom    10.
 Variable       Old X    -DE/DX   Delta X   Delta X   Delta X     New X
                                 (Linear)    (Quad)   (Total)
    R1        2.59881  -0.00579   0.00000  -0.01117  -0.01112   2.58769
    R2        2.59881  -0.00579   0.00000  -0.01117  -0.01112   2.58769
    R3        2.67031  -0.01250   0.00000  -0.02829  -0.02829   2.64202
    R4        3.18108   0.02531   0.00000   0.06549   0.06549   3.24657
    R5        2.64805  -0.01044   0.00000  -0.02292  -0.02297   2.62507
    R6        2.07721  -0.01056   0.00000  -0.03067  -0.03067   2.04655
    R7        2.64804  -0.01043   0.00000  -0.02292  -0.02297   2.62508
    R8        2.08099  -0.01213   0.00000  -0.03547  -0.03547   2.04552
    R9        2.67030  -0.01250   0.00000  -0.02828  -0.02828   2.64202
   R10        2.07683  -0.01043   0.00000  -0.03027  -0.03027   2.04655
   R11        3.18108   0.02531   0.00000   0.06549   0.06549   3.24657
    A1        2.23781  -0.01117   0.00000  -0.04207  -0.04194   2.19587
    A2        2.01530   0.00607   0.00000   0.02420   0.02425   2.03955
    A3        2.13713  -0.00384   0.00000  -0.01522  -0.01524   2.12189
    A4        2.13075  -0.00224   0.00000  -0.00899  -0.00901   2.12175
    A5        2.08261   0.00031   0.00000   0.00087   0.00082   2.08342
    A6        2.09673  -0.00125   0.00000  -0.00702  -0.00699   2.08973
    A7        2.10385   0.00094   0.00000   0.00615   0.00618   2.11003
    A8        2.13274  -0.00159   0.00000  -0.00808  -0.00818   2.12455
    A9        2.07523   0.00080   0.00000   0.00404   0.00409   2.07932
   A10        2.07522   0.00080   0.00000   0.00404   0.00409   2.07932
   A11        2.08261   0.00031   0.00000   0.00086   0.00080   2.08341
   A12        2.10385   0.00094   0.00000   0.00615   0.00618   2.11003
   A13        2.09672  -0.00125   0.00000  -0.00701  -0.00698   2.08974
   A14        2.01530   0.00607   0.00000   0.02422   0.02426   2.03956
   A15        2.13713  -0.00384   0.00000  -0.01522  -0.01524   2.12188
   A16        2.13076  -0.00224   0.00000  -0.00899  -0.00902   2.12174
    D1        0.00000  -0.00000   0.00000  -0.00000   0.00000   0.00000
    D2        3.14159   0.00000   0.00000  -0.00000   0.00000   3.14159
    D3        0.00000   0.00000   0.00000  -0.00000   0.00000   0.00000
    D4        3.14159   0.00000   0.00000   0.00000   0.00000   3.14159
    D5        0.00000   0.00000   0.00000   0.00000   0.00000   0.00000
    D6        3.14159   0.00000   0.00000   0.00000   0.00000   3.14159
    D7        3.14159  -0.00000   0.00000   0.00000   0.00000   3.14159
    D8        0.00000   0.00000   0.00000   0.00000   0.00000   0.00000
    D9        0.00000  -0.00000   0.00000  -0.00000   0.00000   0.00000
   D10        3.14159  -0.00000   0.00000  -0.00000   0.00000   3.14159
   D11        3.14159  -0.00000   0.00000  -0.00000   0.00000   3.14159
   D12        0.00000  -0.00000   0.00000   0.00000   0.00000   0.00000
   D13        0.00000  -0.00000   0.00000  -0.00000   0.00000   0.00000
   D14        3.14159   0.00000   0.00000  -0.00000   0.00000   3.14159
   D15        3.14159  -0.00000   0.00000  -0.00000   0.00000   3.14159
   D16        0.00000  -0.00000   0.00000  -0.00000   0.00000   0.00000
   D17        0.00000   0.00000   0.00000   0.00000   0.00000   0.00000
   D18        3.14159   0.00000   0.00000   0.00000   0.00000   3.14159
   D19        3.14159  -0.00000   0.00000   0.00000   0.00000   3.14159
   D20        0.00000  -0.00000   0.00000   0.00000   0.00000   0.00000
         Item               Value     Threshold  Converged?
 Maximum Force            0.025306     0.000450     NO 
 RMS     Force            0.007282     0.000300     NO 
 Maximum Displacement     0.049882     0.001800     NO 
 RMS     Displacement     0.017512     0.001200     NO 
 Predicted change in Energy=-3.396067D-03
 GradGradGradGradGradGradGradGradGradGradGradGradGradGradGradGradGradGrad

                          Input orientation:                          
 ---------------------------------------------------------------------
 Center     Atomic      Atomic             Coordinates (Angstroms)
 Number     Number       Type             X           Y           Z
 ---------------------------------------------------------------------
      1          6           0       -3.026920    0.100723    0.000000
      2          6           0       -1.898146    0.875950    0.000000
      3          6           0       -0.671359    0.205376    0.000000
      4          6           0       -0.654151   -1.183646    0.000000
      5          6           0       -1.826544   -1.928749    0.000000
      6          6           0       -3.058788   -1.268253    0.000000
      7         17           0       -4.542996   -2.133523    0.000000
      8         17           0       -1.985232    2.591754    0.000000
      9          1           0        0.250992    0.772936    0.000000
     10          1           0        0.297782   -1.698920    0.000000
     11          1           0       -1.797408   -3.011347    0.000000
 ---------------------------------------------------------------------
                    Distance matrix (angstroms):
                    1          2          3          4          5
     1  C    0.000000
     2  C    1.369346   0.000000
     3  C    2.357885   1.398097   0.000000
     4  C    2.698080   2.406129   1.389128   0.000000
     5  C    2.357893   2.805613   2.426714   1.389130   0.000000
     6  C    1.369347   2.438176   2.805601   2.406125   1.398099
     7  Cl   2.700063   4.006515   4.523275   4.003171   2.724160
     8  Cl   2.700064   1.718012   2.724162   4.003176   4.523287
     9  H    3.346129   2.151605   1.082985   2.155806   3.408117
    10  H    3.780524   3.384089   2.136721   1.082444   2.136722
    11  H    3.346144   3.888602   3.408121   2.155812   1.082989
                    6          7          8          9         10
     6  C    0.000000
     7  Cl   1.718012   0.000000
     8  Cl   4.006517   5.373118   0.000000
     9  H    3.888586   5.606232   2.882498   0.000000
    10  H    3.384086   4.860248   4.860251   2.472300   0.000000
    11  H    2.151616   2.882503   5.606247   4.303108   2.472304
                   11
    11  H    0.000000
 Stoichiometry    C6H3Cl2(2)
 Framework group  CS[SG(C6H3Cl2)]
 Deg. of freedom    19
 Full point group                 CS      NOp   2
 Largest Abelian subgroup         CS      NOp   2
 Largest concise Abelian subgroup C1      NOp   1
                         Standard orientation:                         
 ---------------------------------------------------------------------
 Center     Atomic      Atomic             Coordinates (Angstroms)
 Number     Number       Type             X           Y           Z
 ---------------------------------------------------------------------
      1          6           0        0.000000    0.652996   -0.000000
      2          6           0        1.219089    0.029352    0.000000
      3          6           0        1.213355   -1.368733    0.000000
      4          6           0        0.000002   -2.045084    0.000000
      5          6           0       -1.213359   -1.368741    0.000000
      6          6           0       -1.219087    0.029346   -0.000000
      7         17           0       -2.686559    0.922705   -0.000000
      8         17           0        2.686559    0.922714    0.000000
      9          1           0        2.151552   -1.909699    0.000000
     10          1           0        0.000004   -3.127528    0.000000
     11          1           0       -2.151556   -1.909714    0.000000
 ---------------------------------------------------------------------
 Rotational constants (GHZ):           2.8629767           0.8637259           0.6635429
 Standard basis: 6-311++G(d,p) (5D, 7F)
 There are   166 symmetry adapted cartesian basis functions of A'  symmetry.
 There are    55 symmetry adapted cartesian basis functions of A"  symmetry.
 There are   158 symmetry adapted basis functions of A'  symmetry.
 There are    55 symmetry adapted basis functions of A"  symmetry.
   213 basis functions,   349 primitive gaussians,   221 cartesian basis functions
    37 alpha electrons       36 beta electrons
       nuclear repulsion energy       438.9655990695 Hartrees.
 NAtoms=   11 NActive=   11 NUniq=   11 SFac= 1.00D+00 NAtFMM=   60 NAOKFM=F Big=F
 Integral buffers will be    131072 words long.
 Raffenetti 2 integral format.
 Two-electron integral symmetry is turned on.
 One-electron integrals computed using PRISM.
 NBasis=   213 RedAO= T EigKep=  1.33D-06  NBF=   158    55
 NBsUse=   213 1.00D-06 EigRej= -1.00D+00 NBFU=   158    55
 Initial guess from the checkpoint file:  "frequency_chks/1_3ClBzNeutralRadical_Freq.chk"
 B after Tr=    -0.000000   -0.000000   -0.000000
         Rot=    1.000000   -0.000000   -0.000000   -0.000002 Ang=  -0.00 deg.
 Initial guess orbital symmetries:
 Alpha Orbitals:
       Occupied  (A') (A') (A') (A') (A') (A') (A') (A') (A') (A')
                 (A') (A') (A") (A") (A') (A') (A') (A') (A') (A')
                 (A') (A') (A') (A') (A') (A') (A') (A") (A') (A')
                 (A") (A") (A') (A') (A') (A") (A")
       Virtual   (A") (A") (A') (A') (A') (A') (A') (A") (A') (A')
                 (A') (A") (A") (A') (A') (A") (A') (A') (A") (A')
                 (A') (A") (A') (A') (A') (A") (A') (A') (A") (A")
                 (A') (A') (A') (A') (A') (A') (A') (A') (A') (A')
                 (A') (A') (A') (A') (A') (A') (A') (A') (A') (A")
                 (A") (A') (A') (A') (A') (A") (A') (A') (A") (A')
                 (A") (A') (A") (A") (A') (A') (A") (A') (A') (A')
                 (A') (A') (A") (A') (A') (A') (A") (A') (A') (A")
                 (A') (A") (A') (A') (A') (A') (A') (A') (A") (A")
                 (A') (A") (A') (A') (A') (A") (A') (A') (A") (A")
                 (A') (A') (A') (A') (A") (A') (A") (A') (A') (A")
                 (A') (A') (A") (A') (A") (A') (A") (A') (A") (A')
                 (A') (A') (A") (A') (A") (A") (A') (A") (A') (A')
                 (A') (A') (A') (A') (A') (A") (A') (A') (A') (A')
                 (A') (A') (A") (A") (A") (A") (A') (A") (A') (A')
                 (A') (A') (A') (A') (A') (A') (A') (A') (A') (A')
                 (A') (A') (A') (A') (A') (A') (A') (A') (A") (A")
                 (A') (A') (A') (A') (A') (A')
 Beta  Orbitals:
       Occupied  (A') (A') (A') (A') (A') (A') (A') (A') (A') (A')
                 (A') (A') (A") (A") (A') (A') (A') (A') (A') (A')
                 (A') (A') (A') (A') (A') (A') (A') (A") (A') (A')
                 (A") (A") (A') (A') (A") (A")
       Virtual   (A') (A") (A') (A") (A') (A') (A') (A') (A') (A")
                 (A') (A') (A") (A") (A') (A') (A') (A") (A') (A")
                 (A') (A') (A") (A') (A') (A') (A") (A') (A') (A")
                 (A') (A") (A') (A') (A') (A') (A') (A') (A') (A')
                 (A') (A') (A') (A') (A') (A') (A') (A') (A') (A')
                 (A") (A") (A') (A') (A') (A') (A') (A") (A') (A')
                 (A") (A") (A') (A") (A") (A') (A') (A") (A') (A')
                 (A') (A') (A') (A") (A') (A') (A") (A') (A') (A')
                 (A") (A') (A') (A") (A') (A') (A') (A') (A') (A")
                 (A") (A') (A") (A') (A') (A') (A") (A') (A') (A")
                 (A") (A') (A') (A') (A") (A') (A') (A") (A') (A')
                 (A") (A') (A') (A") (A') (A") (A') (A") (A') (A")
                 (A') (A') (A') (A") (A') (A") (A") (A') (A") (A')
                 (A') (A') (A') (A') (A') (A') (A") (A') (A') (A')
                 (A') (A') (A') (A") (A") (A") (A") (A') (A") (A')
                 (A') (A') (A') (A') (A') (A') (A') (A') (A') (A')
                 (A') (A') (A') (A') (A') (A') (A') (A') (A') (A")
                 (A") (A') (A') (A') (A') (A') (A')
 Initial guess <Sx>= 0.0000 <Sy>= 0.0000 <Sz>= 0.5000 <S**2>= 0.7629 S= 0.5064
 ExpMin= 3.60D-02 ExpMax= 1.06D+05 ExpMxC= 3.62D+03 IAcc=3 IRadAn=         5 AccDes= 0.00D+00
 Harris functional with IExCor= 1009 and IRadAn=       5 diagonalized for initial guess.
 HarFok:  IExCor= 1009 AccDes= 0.00D+00 IRadAn=         5 IDoV= 1 UseB2=F ITyADJ=14
 ICtDFT=  3500011 ScaDFX=  1.000000  1.000000  1.000000  1.000000
 FoFCou: FMM=F IPFlag=           0 FMFlag=      100000 FMFlg1=           0
         NFxFlg=           0 DoJE=T BraDBF=F KetDBF=T FulRan=T
         wScrn=  0.000000 ICntrl=       500 IOpCl=  0 I1Cent=   200000004 NGrid=           0
         NMat0=    1 NMatS0=      1 NMatT0=    0 NMatD0=    1 NMtDS0=    0 NMtDT0=    0
 Petite list used in FoFCou.
 Keep R1 and R2 ints in memory in symmetry-blocked form, NReq=411615841.
 Requested convergence on RMS density matrix=1.00D-08 within 128 cycles.
 Requested convergence on MAX density matrix=1.00D-06.
 Requested convergence on             energy=1.00D-06.
 No special actions if energy rises.
 SCF Done:  E(UM062X) =  -1150.70780686     A.U. after   17 cycles
            NFock= 17  Conv=0.49D-08     -V/T= 2.0024
 <Sx>= 0.0000 <Sy>= 0.0000 <Sz>= 0.5000 <S**2>= 0.7626 S= 0.5063
 <L.S>=  0.00000000000    
 Annihilation of the first spin contaminant:
 S**2 before annihilation     0.7626,   after     0.7501
 Calling FoFJK, ICntrl=      2127 FMM=F ISym2X=1 I1Cent= 0 IOpClX= 1 NMat=1 NMatS=1 NMatT=0.
 ***** Axes restored to original set *****
 -------------------------------------------------------------------
 Center     Atomic                   Forces (Hartrees/Bohr)
 Number     Number              X              Y              Z
 -------------------------------------------------------------------
      1        6          -0.006704118    0.003627979    0.000000000
      2        6           0.003548150   -0.014242982    0.000000000
      3        6          -0.000286905    0.004156510   -0.000000000
      4        6           0.001013838   -0.000550803    0.000000000
      5        6          -0.003636610   -0.002030549    0.000000000
      6        6           0.013865740    0.004815097   -0.000000000
      7       17          -0.006812045   -0.003712765    0.000000000
      8       17          -0.000615823    0.007733136   -0.000000000
      9        1          -0.000116556    0.000516082   -0.000000000
     10        1           0.000240811   -0.000130143   -0.000000000
     11        1          -0.000496483   -0.000181560    0.000000000
 -------------------------------------------------------------------
 Cartesian Forces:  Max     0.014242982 RMS     0.004424604

 GradGradGradGradGradGradGradGradGradGradGradGradGradGradGradGradGradGrad
 Berny optimization.
 Using GEDIIS/GDIIS optimizer.
 FormGI is forming the generalized inverse of G from B-inverse, IUseBI=4.
 Internal  Forces:  Max     0.007754914 RMS     0.002102107
 Search for a local minimum.
 Step number   2 out of a maximum of   57
 All quantities printed in internal units (Hartrees-Bohrs-Radians)
 Mixed Optimization -- RFO/linear search
 Update second derivatives using D2CorX and points    1    2
 DE= -4.09D-03 DEPred=-3.40D-03 R= 1.20D+00
 TightC=F SS=  1.41D+00  RLast= 1.36D-01 DXNew= 5.0454D-01 4.0732D-01
 Trust test= 1.20D+00 RLast= 1.36D-01 DXMaxT set to 4.07D-01
 ITU=  1  0
 Use linear search instead of GDIIS.
     Eigenvalues ---    0.01979   0.01984   0.02019   0.02023   0.02072
     Eigenvalues ---    0.02080   0.02115   0.02338   0.15868   0.16000
     Eigenvalues ---    0.16000   0.19897   0.22098   0.23471   0.25000
     Eigenvalues ---    0.25000   0.32987   0.33637   0.33781   0.35315
     Eigenvalues ---    0.37971   0.40610   0.43080   0.44827   0.45145
     Eigenvalues ---    0.49564   0.50708
 RFO step:  Lambda=-4.87267041D-04 EMin= 1.97879166D-02
 Quartic linear search produced a step of  0.30810.
 Iteration  1 RMS(Cart)=  0.00723604 RMS(Int)=  0.00006807
 Iteration  2 RMS(Cart)=  0.00008266 RMS(Int)=  0.00003049
 Iteration  3 RMS(Cart)=  0.00000000 RMS(Int)=  0.00003049
 ClnCor:  largest displacement from symmetrization is 8.81D-10 for atom    10.
 Variable       Old X    -DE/DX   Delta X   Delta X   Delta X     New X
                                 (Linear)    (Quad)   (Total)
    R1        2.58769   0.00000  -0.00343   0.00237  -0.00102   2.58667
    R2        2.58769   0.00000  -0.00343   0.00236  -0.00102   2.58667
    R3        2.64202  -0.00188  -0.00872   0.00104  -0.00768   2.63434
    R4        3.24657   0.00775   0.02018   0.01125   0.03142   3.27800
    R5        2.62507   0.00169  -0.00708   0.01056   0.00344   2.62851
    R6        2.04655   0.00017  -0.00945   0.00789  -0.00156   2.04498
    R7        2.62508   0.00169  -0.00708   0.01055   0.00344   2.62851
    R8        2.04552   0.00027  -0.01093   0.00942  -0.00151   2.04402
    R9        2.64202  -0.00188  -0.00871   0.00103  -0.00768   2.63434
   R10        2.04655   0.00017  -0.00933   0.00778  -0.00155   2.04501
   R11        3.24657   0.00775   0.02018   0.01125   0.03143   3.27800
    A1        2.19587  -0.00492  -0.01292  -0.01685  -0.02966   2.16621
    A2        2.03955   0.00387   0.00747   0.01426   0.02177   2.06132
    A3        2.12189  -0.00229  -0.00470  -0.00829  -0.01300   2.10888
    A4        2.12175  -0.00157  -0.00278  -0.00597  -0.00877   2.11298
    A5        2.08342  -0.00090   0.00025  -0.00455  -0.00435   2.07907
    A6        2.08973  -0.00006  -0.00215  -0.00035  -0.00248   2.08725
    A7        2.11003   0.00096   0.00190   0.00490   0.00683   2.11686
    A8        2.12455  -0.00102  -0.00252  -0.00258  -0.00519   2.11936
    A9        2.07932   0.00051   0.00126   0.00129   0.00259   2.08191
   A10        2.07932   0.00051   0.00126   0.00129   0.00260   2.08191
   A11        2.08341  -0.00089   0.00025  -0.00453  -0.00434   2.07907
   A12        2.11003   0.00096   0.00191   0.00490   0.00683   2.11686
   A13        2.08974  -0.00007  -0.00215  -0.00037  -0.00249   2.08725
   A14        2.03956   0.00386   0.00747   0.01425   0.02176   2.06132
   A15        2.12188  -0.00229  -0.00470  -0.00829  -0.01300   2.10888
   A16        2.12174  -0.00157  -0.00278  -0.00597  -0.00876   2.11298
    D1        0.00000  -0.00000   0.00000   0.00000   0.00000   0.00000
    D2        3.14159   0.00000   0.00000   0.00000   0.00000   3.14159
    D3       -0.00000  -0.00000   0.00000  -0.00000   0.00000   0.00000
    D4        3.14159  -0.00000   0.00000  -0.00000   0.00000   3.14159
    D5       -0.00000  -0.00000   0.00000  -0.00000   0.00000   0.00000
    D6        3.14159   0.00000   0.00000   0.00000   0.00000   3.14159
    D7        3.14159  -0.00000   0.00000  -0.00000   0.00000   3.14159
    D8        0.00000  -0.00000   0.00000  -0.00000   0.00000   0.00000
    D9       -0.00000  -0.00000   0.00000   0.00000   0.00000   0.00000
   D10        3.14159   0.00000   0.00000   0.00000   0.00000   3.14159
   D11        3.14159  -0.00000   0.00000  -0.00000   0.00000   3.14159
   D12       -0.00000  -0.00000   0.00000  -0.00000   0.00000   0.00000
   D13        0.00000   0.00000   0.00000   0.00000  -0.00000   0.00000
   D14        3.14159   0.00000   0.00000   0.00000   0.00000   3.14159
   D15        3.14159  -0.00000   0.00000  -0.00000   0.00000   3.14159
   D16        0.00000   0.00000   0.00000   0.00000  -0.00000   0.00000
   D17       -0.00000   0.00000   0.00000  -0.00000   0.00000   0.00000
   D18        3.14159   0.00000   0.00000   0.00000   0.00000   3.14159
   D19        3.14159  -0.00000   0.00000  -0.00000   0.00000   3.14159
   D20        0.00000   0.00000   0.00000   0.00000   0.00000   0.00000
         Item               Value     Threshold  Converged?
 Maximum Force            0.007755     0.000450     NO 
 RMS     Force            0.002102     0.000300     NO 
 Maximum Displacement     0.021724     0.001800     NO 
 RMS     Displacement     0.007234     0.001200     NO 
 Predicted change in Energy=-4.710806D-04
 GradGradGradGradGradGradGradGradGradGradGradGradGradGradGradGradGradGrad

                          Input orientation:                          
 ---------------------------------------------------------------------
 Center     Atomic      Atomic             Coordinates (Angstroms)
 Number     Number       Type             X           Y           Z
 ---------------------------------------------------------------------
      1          6           0       -3.037322    0.106351    0.000000
      2          6           0       -1.897622    0.864454   -0.000000
      3          6           0       -0.669789    0.204334   -0.000000
      4          6           0       -0.648953   -1.186458    0.000000
      5          6           0       -1.824814   -1.929485    0.000000
      6          6           0       -3.048880   -1.262407    0.000000
      7         17           0       -4.545855   -2.138791    0.000000
      8         17           0       -1.982385    2.597023   -0.000000
      9          1           0        0.246472    0.780123   -0.000000
     10          1           0        0.302279   -1.701353    0.000000
     11          1           0       -1.805901   -3.011491    0.000000
 ---------------------------------------------------------------------
                    Distance matrix (angstroms):
                    1          2          3          4          5
     1  C    0.000000
     2  C    1.368808   0.000000
     3  C    2.369559   1.394035   0.000000
     4  C    2.715817   2.401128   1.390948   0.000000
     5  C    2.369558   2.794888   2.426369   1.390949   0.000000
     6  C    1.368807   2.418457   2.794889   2.401129   1.394034
     7  Cl   2.704873   4.004075   4.529251   4.011581   2.729079
     8  Cl   2.704873   1.734641   2.729078   4.011579   4.529250
     9  H    3.352203   2.145752   1.082158   2.160839   3.410601
    10  H    3.797463   3.379783   2.139290   1.081646   2.139291
    11  H    3.352213   3.877030   3.410613   2.160850   1.082171
                    6          7          8          9         10
     6  C    0.000000
     7  Cl   1.734642   0.000000
     8  Cl   4.004074   5.385101   0.000000
     9  H    3.877018   5.611279   2.875575   0.000000
    10  H    3.379784   4.867828   4.867826   2.482104   0.000000
    11  H    2.145761   2.875579   5.611290   4.311446   2.482112
                   11
    11  H    0.000000
 Stoichiometry    C6H3Cl2(2)
 Framework group  CS[SG(C6H3Cl2)]
 Deg. of freedom    19
 Full point group                 CS      NOp   2
 Largest Abelian subgroup         CS      NOp   2
 Largest concise Abelian subgroup C1      NOp   1
                         Standard orientation:                         
 ---------------------------------------------------------------------
 Center     Atomic      Atomic             Coordinates (Angstroms)
 Number     Number       Type             X           Y           Z
 ---------------------------------------------------------------------
      1          6           0       -0.665484   -0.000000    0.000000
      2          6           0       -0.024079    1.209229    0.000000
      3          6           0        1.369950    1.213185    0.000000
      4          6           0        2.050333    0.000001    0.000000
      5          6           0        1.369950   -1.213184    0.000000
      6          6           0       -0.024079   -1.209228    0.000000
      7         17           0       -0.923377   -2.692551    0.000000
      8         17           0       -0.923377    2.692550    0.000000
      9          1           0        1.901643    2.155718    0.000000
     10          1           0        3.131979    0.000002    0.000000
     11          1           0        1.901650   -2.155728    0.000000
 ---------------------------------------------------------------------
 Rotational constants (GHZ):           2.8535687           0.8612156           0.6615560
 Standard basis: 6-311++G(d,p) (5D, 7F)
 There are   166 symmetry adapted cartesian basis functions of A'  symmetry.
 There are    55 symmetry adapted cartesian basis functions of A"  symmetry.
 There are   158 symmetry adapted basis functions of A'  symmetry.
 There are    55 symmetry adapted basis functions of A"  symmetry.
   213 basis functions,   349 primitive gaussians,   221 cartesian basis functions
    37 alpha electrons       36 beta electrons
       nuclear repulsion energy       438.1719903139 Hartrees.
 NAtoms=   11 NActive=   11 NUniq=   11 SFac= 1.00D+00 NAtFMM=   60 NAOKFM=F Big=F
 Integral buffers will be    131072 words long.
 Raffenetti 2 integral format.
 Two-electron integral symmetry is turned on.
 One-electron integrals computed using PRISM.
 NBasis=   213 RedAO= T EigKep=  1.37D-06  NBF=   158    55
 NBsUse=   213 1.00D-06 EigRej= -1.00D+00 NBFU=   158    55
 Initial guess from the checkpoint file:  "frequency_chks/1_3ClBzNeutralRadical_Freq.chk"
 B after Tr=     0.000000    0.000000    0.000000
         Rot=    0.707107   -0.000000   -0.000000   -0.707106 Ang= -90.00 deg.
 Initial guess orbital symmetries:
 Alpha Orbitals:
       Occupied  (A') (A') (A') (A') (A') (A') (A') (A') (A') (A')
                 (A') (A') (A') (A') (A") (A") (A') (A') (A') (A')
                 (A') (A') (A') (A') (A') (A') (A') (A") (A') (A')
                 (A") (A") (A') (A') (A') (A") (A")
       Virtual   (A") (A") (A') (A') (A') (A') (A') (A') (A") (A')
                 (A') (A") (A") (A') (A') (A') (A") (A') (A") (A')
                 (A') (A") (A') (A') (A') (A") (A') (A') (A") (A")
                 (A') (A') (A') (A') (A') (A') (A') (A') (A') (A')
                 (A') (A') (A') (A') (A') (A') (A') (A') (A') (A")
                 (A") (A') (A') (A') (A') (A") (A') (A') (A") (A')
                 (A") (A') (A") (A") (A') (A') (A") (A') (A') (A')
                 (A') (A') (A") (A') (A') (A') (A") (A') (A') (A')
                 (A") (A") (A') (A') (A') (A') (A') (A') (A") (A")
                 (A') (A") (A') (A') (A") (A') (A') (A') (A") (A")
                 (A') (A') (A') (A') (A") (A') (A") (A') (A') (A")
                 (A') (A') (A") (A') (A") (A') (A") (A') (A") (A')
                 (A') (A') (A") (A') (A") (A") (A') (A") (A') (A')
                 (A') (A') (A') (A') (A') (A") (A') (A') (A') (A')
                 (A') (A") (A') (A") (A") (A") (A') (A") (A') (A')
                 (A') (A') (A') (A') (A') (A') (A') (A') (A') (A')
                 (A') (A') (A') (A') (A') (A') (A') (A') (A") (A")
                 (A') (A') (A') (A') (A') (A')
 Beta  Orbitals:
       Occupied  (A') (A') (A') (A') (A') (A') (A') (A') (A') (A')
                 (A') (A') (A") (A") (A') (A') (A') (A') (A') (A')
                 (A') (A') (A') (A') (A') (A') (A') (A") (A') (A')
                 (A") (A") (A') (A') (A") (A")
       Virtual   (A') (A") (A') (A") (A') (A') (A') (A') (A') (A")
                 (A') (A') (A") (A") (A') (A') (A') (A') (A") (A")
                 (A') (A') (A") (A') (A') (A') (A") (A') (A') (A")
                 (A') (A") (A') (A') (A') (A') (A') (A') (A') (A')
                 (A') (A') (A') (A') (A') (A') (A') (A') (A') (A')
                 (A") (A") (A') (A') (A') (A') (A') (A") (A') (A')
                 (A") (A") (A') (A") (A") (A') (A') (A") (A') (A')
                 (A') (A') (A') (A") (A') (A') (A') (A") (A') (A')
                 (A') (A") (A') (A") (A') (A') (A') (A') (A') (A")
                 (A") (A') (A") (A') (A') (A') (A") (A') (A') (A")
                 (A") (A') (A') (A') (A") (A') (A') (A") (A') (A')
                 (A") (A') (A') (A") (A') (A") (A') (A") (A') (A")
                 (A') (A') (A') (A") (A') (A") (A") (A') (A") (A')
                 (A') (A') (A') (A') (A') (A') (A") (A') (A') (A')
                 (A') (A') (A") (A') (A") (A") (A") (A') (A") (A')
                 (A') (A') (A') (A') (A') (A') (A') (A') (A') (A')
                 (A') (A') (A') (A') (A') (A') (A') (A') (A') (A")
                 (A") (A') (A') (A') (A') (A') (A')
 Initial guess <Sx>= 0.0000 <Sy>= 0.0000 <Sz>= 0.5000 <S**2>= 0.7627 S= 0.5063
 ExpMin= 3.60D-02 ExpMax= 1.06D+05 ExpMxC= 3.62D+03 IAcc=3 IRadAn=         5 AccDes= 0.00D+00
 Harris functional with IExCor= 1009 and IRadAn=       5 diagonalized for initial guess.
 HarFok:  IExCor= 1009 AccDes= 0.00D+00 IRadAn=         5 IDoV= 1 UseB2=F ITyADJ=14
 ICtDFT=  3500011 ScaDFX=  1.000000  1.000000  1.000000  1.000000
 FoFCou: FMM=F IPFlag=           0 FMFlag=      100000 FMFlg1=           0
         NFxFlg=           0 DoJE=T BraDBF=F KetDBF=T FulRan=T
         wScrn=  0.000000 ICntrl=       500 IOpCl=  0 I1Cent=   200000004 NGrid=           0
         NMat0=    1 NMatS0=      1 NMatT0=    0 NMatD0=    1 NMtDS0=    0 NMtDT0=    0
 Petite list used in FoFCou.
 Keep R1 and R2 ints in memory in symmetry-blocked form, NReq=411615841.
 Requested convergence on RMS density matrix=1.00D-08 within 128 cycles.
 Requested convergence on MAX density matrix=1.00D-06.
 Requested convergence on             energy=1.00D-06.
 No special actions if energy rises.
 SCF Done:  E(UM062X) =  -1150.70834552     A.U. after   15 cycles
            NFock= 15  Conv=0.76D-08     -V/T= 2.0024
 <Sx>= 0.0000 <Sy>= 0.0000 <Sz>= 0.5000 <S**2>= 0.7628 S= 0.5064
 <L.S>=  0.00000000000    
 Annihilation of the first spin contaminant:
 S**2 before annihilation     0.7628,   after     0.7501
 Calling FoFJK, ICntrl=      2127 FMM=F ISym2X=1 I1Cent= 0 IOpClX= 1 NMat=1 NMatS=1 NMatT=0.
 ***** Axes restored to original set *****
 -------------------------------------------------------------------
 Center     Atomic                   Forces (Hartrees/Bohr)
 Number     Number              X              Y              Z
 -------------------------------------------------------------------
      1        6          -0.001401359    0.000759478   -0.000000000
      2        6           0.000489596   -0.001683005   -0.000000000
      3        6           0.000086558    0.000650095   -0.000000000
      4        6          -0.000495079    0.000267437   -0.000000000
      5        6          -0.000495985   -0.000436612   -0.000000000
      6        6           0.001676042    0.000509453   -0.000000000
      7       17          -0.000884146   -0.000475179   -0.000000000
      8       17          -0.000085661    0.001000523   -0.000000000
      9        1           0.000434483    0.000304553   -0.000000000
     10        1           0.000693070   -0.000375238   -0.000000000
     11        1          -0.000017521   -0.000521505   -0.000000000
 -------------------------------------------------------------------
 Cartesian Forces:  Max     0.001683005 RMS     0.000628989

 GradGradGradGradGradGradGradGradGradGradGradGradGradGradGradGradGradGrad
 Berny optimization.
 Using GEDIIS/GDIIS optimizer.
 FormGI is forming the generalized inverse of G from B-inverse, IUseBI=4.
 Internal  Forces:  Max     0.001003513 RMS     0.000364476
 Search for a local minimum.
 Step number   3 out of a maximum of   57
 All quantities printed in internal units (Hartrees-Bohrs-Radians)
 Mixed Optimization -- En-DIIS/RFO-DIIS
 Update second derivatives using D2CorX and points    1    2    3
 DE= -5.39D-04 DEPred=-4.71D-04 R= 1.14D+00
 TightC=F SS=  1.41D+00  RLast= 6.80D-02 DXNew= 6.8503D-01 2.0411D-01
 Trust test= 1.14D+00 RLast= 6.80D-02 DXMaxT set to 4.07D-01
 ITU=  1  1  0
 Use linear search instead of GDIIS.
     Eigenvalues ---    0.01979   0.01984   0.02020   0.02022   0.02072
     Eigenvalues ---    0.02079   0.02114   0.02334   0.15636   0.16000
     Eigenvalues ---    0.16000   0.17506   0.22134   0.23483   0.25000
     Eigenvalues ---    0.25000   0.32376   0.33657   0.33781   0.35723
     Eigenvalues ---    0.37971   0.40575   0.43136   0.45033   0.45141
     Eigenvalues ---    0.49539   0.51327
 RFO step:  Lambda=-6.92337515D-06 EMin= 1.97925564D-02
 Quartic linear search produced a step of  0.16048.
 Iteration  1 RMS(Cart)=  0.00138586 RMS(Int)=  0.00000412
 Iteration  2 RMS(Cart)=  0.00000263 RMS(Int)=  0.00000372
 Iteration  3 RMS(Cart)=  0.00000000 RMS(Int)=  0.00000372
 ClnCor:  largest displacement from symmetrization is 2.54D-10 for atom    10.
 Variable       Old X    -DE/DX   Delta X   Delta X   Delta X     New X
                                 (Linear)    (Quad)   (Total)
    R1        2.58667   0.00043  -0.00016   0.00092   0.00076   2.58744
    R2        2.58667   0.00043  -0.00016   0.00093   0.00077   2.58744
    R3        2.63434   0.00012  -0.00123   0.00085  -0.00038   2.63396
    R4        3.27800   0.00100   0.00504   0.00000   0.00505   3.28304
    R5        2.62851   0.00059   0.00055   0.00068   0.00122   2.62973
    R6        2.04498   0.00053  -0.00025   0.00149   0.00124   2.04622
    R7        2.62851   0.00059   0.00055   0.00067   0.00122   2.62973
    R8        2.04402   0.00079  -0.00024   0.00230   0.00205   2.04607
    R9        2.63434   0.00012  -0.00123   0.00085  -0.00038   2.63396
   R10        2.04501   0.00052  -0.00025   0.00146   0.00122   2.04622
   R11        3.27800   0.00100   0.00504   0.00000   0.00505   3.28304
    A1        2.16621  -0.00076  -0.00476  -0.00036  -0.00511   2.16110
    A2        2.06132   0.00062   0.00349   0.00042   0.00392   2.06524
    A3        2.10888  -0.00037  -0.00209  -0.00026  -0.00235   2.10653
    A4        2.11298  -0.00025  -0.00141  -0.00016  -0.00157   2.11141
    A5        2.07907  -0.00027  -0.00070  -0.00074  -0.00145   2.07763
    A6        2.08725   0.00011  -0.00040   0.00066   0.00026   2.08751
    A7        2.11686   0.00016   0.00110   0.00009   0.00119   2.11805
    A8        2.11936   0.00006  -0.00083   0.00101   0.00016   2.11952
    A9        2.08191  -0.00003   0.00042  -0.00050  -0.00008   2.08183
   A10        2.08191  -0.00003   0.00042  -0.00050  -0.00008   2.08183
   A11        2.07907  -0.00027  -0.00070  -0.00075  -0.00145   2.07763
   A12        2.11686   0.00016   0.00110   0.00009   0.00119   2.11805
   A13        2.08725   0.00011  -0.00040   0.00066   0.00026   2.08751
   A14        2.06132   0.00062   0.00349   0.00042   0.00392   2.06524
   A15        2.10888  -0.00037  -0.00209  -0.00026  -0.00235   2.10653
   A16        2.11298  -0.00025  -0.00141  -0.00016  -0.00157   2.11141
    D1        0.00000  -0.00000   0.00000  -0.00000   0.00000   0.00000
    D2        3.14159   0.00000   0.00000  -0.00000   0.00000   3.14159
    D3        0.00000  -0.00000   0.00000  -0.00000   0.00000   0.00000
    D4        3.14159  -0.00000   0.00000  -0.00000   0.00000   3.14159
    D5        0.00000  -0.00000   0.00000   0.00000   0.00000   0.00000
    D6        3.14159   0.00000   0.00000   0.00000   0.00000   3.14159
    D7        3.14159   0.00000   0.00000   0.00000   0.00000   3.14159
    D8        0.00000  -0.00000   0.00000   0.00000   0.00000   0.00000
    D9        0.00000  -0.00000   0.00000  -0.00000   0.00000   0.00000
   D10        3.14159  -0.00000   0.00000  -0.00000   0.00000   3.14159
   D11        3.14159  -0.00000   0.00000  -0.00000   0.00000   3.14159
   D12        0.00000  -0.00000   0.00000  -0.00000   0.00000   0.00000
   D13        0.00000   0.00000   0.00000   0.00000   0.00000   0.00000
   D14        3.14159   0.00000   0.00000   0.00000   0.00000   3.14159
   D15        3.14159   0.00000   0.00000   0.00000   0.00000   3.14159
   D16        0.00000   0.00000   0.00000   0.00000   0.00000   0.00000
   D17        0.00000   0.00000   0.00000   0.00000   0.00000   0.00000
   D18        3.14159  -0.00000   0.00000   0.00000   0.00000   3.14159
   D19        3.14159   0.00000   0.00000   0.00000   0.00000   3.14159
   D20        0.00000   0.00000   0.00000   0.00000   0.00000   0.00000
         Item               Value     Threshold  Converged?
 Maximum Force            0.001004     0.000450     NO 
 RMS     Force            0.000364     0.000300     NO 
 Maximum Displacement     0.004446     0.001800     NO 
 RMS     Displacement     0.001385     0.001200     NO 
 Predicted change in Energy=-1.336960D-05
 GradGradGradGradGradGradGradGradGradGradGradGradGradGradGradGradGradGrad

                          Input orientation:                          
 ---------------------------------------------------------------------
 Center     Atomic      Atomic             Coordinates (Angstroms)
 Number     Number       Type             X           Y           Z
 ---------------------------------------------------------------------
      1          6           0       -3.039674    0.107624    0.000000
      2          6           0       -1.897705    0.863037    0.000000
      3          6           0       -0.669150    0.204690    0.000000
      4          6           0       -0.648416   -1.186750    0.000000
      5          6           0       -1.824763   -1.930218    0.000000
      6          6           0       -3.047739   -1.261565    0.000000
      7         17           0       -4.546842   -2.139599    0.000000
      8         17           0       -1.982250    2.598290    0.000000
[...]
      6        6           0.000009969    0.000000020    0.000000000
      7       17           0.000010473    0.000017277    0.000000000
      8       17          -0.000008783   -0.000018005   -0.000000000
      9        1           0.000020226   -0.000005748    0.000000000
     10        1           0.000038914   -0.000021063    0.000000000
     11        1           0.000015897   -0.000013817   -0.000000000
 -------------------------------------------------------------------
 Cartesian Forces:  Max     0.000082401 RMS     0.000029550
 FormGI is forming the generalized inverse of G from B-inverse, IUseBI=4.

 GradGradGradGradGradGradGradGradGradGradGradGradGradGradGradGradGradGrad
 Berny optimization.
 Internal  Forces:  Max     0.000047208 RMS     0.000020047
 Search for a local minimum.
 Step number   1 out of a maximum of    2
 All quantities printed in internal units (Hartrees-Bohrs-Radians)
 Second derivative matrix not updated -- analytic derivatives used.
 ITU=  0
     Eigenvalues ---    0.01686   0.01756   0.01811   0.02429   0.02544
     Eigenvalues ---    0.02812   0.03651   0.03960   0.10737   0.11346
     Eigenvalues ---    0.11974   0.14226   0.16253   0.17069   0.17359
     Eigenvalues ---    0.19204   0.26355   0.26522   0.27959   0.36606
     Eigenvalues ---    0.36728   0.36825   0.42750   0.42937   0.47606
     Eigenvalues ---    0.49481   0.52827
 Angle between quadratic step and forces=  24.77 degrees.
 Linear search not attempted -- first point.
 Iteration  1 RMS(Cart)=  0.00014198 RMS(Int)=  0.00000001
 Iteration  2 RMS(Cart)=  0.00000002 RMS(Int)=  0.00000000
 ClnCor:  largest displacement from symmetrization is 2.64D-14 for atom    10.
 Variable       Old X    -DE/DX   Delta X   Delta X   Delta X     New X
                                 (Linear)    (Quad)   (Total)
    R1        2.58744   0.00002   0.00000   0.00004   0.00004   2.58748
    R2        2.58744   0.00002   0.00000   0.00004   0.00004   2.58748
    R3        2.63396   0.00002   0.00000   0.00003   0.00003   2.63399
    R4        3.28304  -0.00002   0.00000  -0.00004  -0.00004   3.28300
    R5        2.62973   0.00004   0.00000   0.00008   0.00008   2.62981
    R6        2.04622   0.00001   0.00000   0.00002   0.00002   2.04624
    R7        2.62973   0.00004   0.00000   0.00008   0.00008   2.62981
    R8        2.04607   0.00004   0.00000   0.00014   0.00014   2.04621
    R9        2.63396   0.00002   0.00000   0.00003   0.00003   2.63399
   R10        2.04622   0.00001   0.00000   0.00002   0.00002   2.04624
   R11        3.28304  -0.00002   0.00000  -0.00005  -0.00005   3.28300
    A1        2.16110  -0.00000   0.00000  -0.00002  -0.00002   2.16109
    A2        2.06524   0.00002   0.00000   0.00009   0.00009   2.06534
    A3        2.10653  -0.00003   0.00000  -0.00016  -0.00016   2.10637
    A4        2.11141   0.00001   0.00000   0.00007   0.00007   2.11148
    A5        2.07763  -0.00004   0.00000  -0.00022  -0.00022   2.07740
    A6        2.08751   0.00004   0.00000   0.00027   0.00027   2.08778
    A7        2.11805   0.00000   0.00000  -0.00005  -0.00005   2.11800
    A8        2.11952   0.00005   0.00000   0.00028   0.00028   2.11980
    A9        2.08183  -0.00002   0.00000  -0.00014  -0.00014   2.08169
   A10        2.08183  -0.00002   0.00000  -0.00014  -0.00014   2.08169
   A11        2.07763  -0.00004   0.00000  -0.00022  -0.00022   2.07740
   A12        2.11805   0.00000   0.00000  -0.00005  -0.00005   2.11800
   A13        2.08751   0.00004   0.00000   0.00027   0.00027   2.08778
   A14        2.06524   0.00002   0.00000   0.00009   0.00009   2.06534
   A15        2.10653  -0.00003   0.00000  -0.00016  -0.00016   2.10637
   A16        2.11141   0.00001   0.00000   0.00007   0.00007   2.11148
    D1        0.00000  -0.00000   0.00000  -0.00000  -0.00000   0.00000
    D2        3.14159  -0.00000   0.00000  -0.00000   0.00000   3.14159
    D3       -0.00000   0.00000   0.00000  -0.00000   0.00000   0.00000
    D4        3.14159  -0.00000   0.00000  -0.00000   0.00000   3.14159
    D5       -0.00000   0.00000   0.00000   0.00000   0.00000   0.00000
    D6        3.14159  -0.00000   0.00000   0.00000   0.00000   3.14159
    D7        3.14159   0.00000   0.00000   0.00000   0.00000   3.14159
    D8        0.00000   0.00000   0.00000   0.00000  -0.00000   0.00000
    D9        0.00000  -0.00000   0.00000  -0.00000   0.00000   0.00000
   D10        3.14159   0.00000   0.00000  -0.00000   0.00000   3.14159
   D11        3.14159  -0.00000   0.00000  -0.00000   0.00000   3.14159
   D12        0.00000   0.00000   0.00000  -0.00000   0.00000   0.00000
   D13       -0.00000   0.00000   0.00000  -0.00000   0.00000   0.00000
   D14        3.14159   0.00000   0.00000  -0.00000   0.00000   3.14159
   D15        3.14159   0.00000   0.00000  -0.00000   0.00000   3.14159
   D16       -0.00000   0.00000   0.00000  -0.00000   0.00000   0.00000
   D17        0.00000   0.00000   0.00000   0.00000  -0.00000   0.00000
   D18        3.14159  -0.00000   0.00000   0.00000   0.00000   3.14159
   D19        3.14159   0.00000   0.00000   0.00000   0.00000   3.14159
   D20        0.00000   0.00000   0.00000   0.00000   0.00000   0.00000
         Item               Value     Threshold  Converged?
 Maximum Force            0.000047     0.000450     YES
 RMS     Force            0.000020     0.000300     YES
 Maximum Displacement     0.000448     0.001800     YES
 RMS     Displacement     0.000142     0.001200     YES
 Predicted change in Energy=-4.353365D-08
 Optimization completed.
    -- Stationary point found.
                           ----------------------------
                           !   Optimized Parameters   !
                           ! (Angstroms and Degrees)  !
 --------------------------                            --------------------------
 ! Name  Definition              Value          Derivative Info.                !
 --------------------------------------------------------------------------------
 ! R1    R(1,2)                  1.3692         -DE/DX =    0.0                 !
 ! R2    R(1,6)                  1.3692         -DE/DX =    0.0                 !
 ! R3    R(2,3)                  1.3938         -DE/DX =    0.0                 !
 ! R4    R(2,8)                  1.7373         -DE/DX =    0.0                 !
 ! R5    R(3,4)                  1.3916         -DE/DX =    0.0                 !
 ! R6    R(3,9)                  1.0828         -DE/DX =    0.0                 !
 ! R7    R(4,5)                  1.3916         -DE/DX =    0.0                 !
 ! R8    R(4,10)                 1.0827         -DE/DX =    0.0                 !
 ! R9    R(5,6)                  1.3938         -DE/DX =    0.0                 !
 ! R10   R(5,11)                 1.0828         -DE/DX =    0.0                 !
 ! R11   R(6,7)                  1.7373         -DE/DX =    0.0                 !
 ! A1    A(2,1,6)              123.8221         -DE/DX =    0.0                 !
 ! A2    A(1,2,3)              118.3298         -DE/DX =    0.0                 !
 ! A3    A(1,2,8)              120.6953         -DE/DX =    0.0                 !
 ! A4    A(3,2,8)              120.9749         -DE/DX =    0.0                 !
 ! A5    A(2,3,4)              119.0392         -DE/DX =    0.0                 !
 ! A6    A(2,3,9)              119.6055         -DE/DX =    0.0                 !
 ! A7    A(4,3,9)              121.3553         -DE/DX =    0.0                 !
 ! A8    A(3,4,5)              121.4398         -DE/DX =    0.0                 !
 ! A9    A(3,4,10)             119.2801         -DE/DX =    0.0                 !
 ! A10   A(5,4,10)             119.2801         -DE/DX =    0.0                 !
 ! A11   A(4,5,6)              119.0393         -DE/DX =    0.0                 !
 ! A12   A(4,5,11)             121.3553         -DE/DX =    0.0                 !
 ! A13   A(6,5,11)             119.6054         -DE/DX =    0.0                 !
 ! A14   A(1,6,5)              118.3298         -DE/DX =    0.0                 !
 ! A15   A(1,6,7)              120.6953         -DE/DX =    0.0                 !
 ! A16   A(5,6,7)              120.9749         -DE/DX =    0.0                 !
 ! D1    D(6,1,2,3)              0.0            -DE/DX =    0.0                 !
 ! D2    D(6,1,2,8)            180.0            -DE/DX =    0.0                 !
 ! D3    D(2,1,6,5)              0.0            -DE/DX =    0.0                 !
 ! D4    D(2,1,6,7)            180.0            -DE/DX =    0.0                 !
 ! D5    D(1,2,3,4)              0.0            -DE/DX =    0.0                 !
 ! D6    D(1,2,3,9)            180.0            -DE/DX =    0.0                 !
 ! D7    D(8,2,3,4)            180.0            -DE/DX =    0.0                 !
 ! D8    D(8,2,3,9)              0.0            -DE/DX =    0.0                 !
 ! D9    D(2,3,4,5)              0.0            -DE/DX =    0.0                 !
 ! D10   D(2,3,4,10)           180.0            -DE/DX =    0.0                 !
 ! D11   D(9,3,4,5)            180.0            -DE/DX =    0.0                 !
 ! D12   D(9,3,4,10)             0.0            -DE/DX =    0.0                 !
 ! D13   D(3,4,5,6)              0.0            -DE/DX =    0.0                 !
 ! D14   D(3,4,5,11)           180.0            -DE/DX =    0.0                 !
 ! D15   D(10,4,5,6)           180.0            -DE/DX =    0.0                 !
 ! D16   D(10,4,5,11)            0.0            -DE/DX =    0.0                 !
 ! D17   D(4,5,6,1)              0.0            -DE/DX =    0.0                 !
 ! D18   D(4,5,6,7)            180.0            -DE/DX =    0.0                 !
 ! D19   D(11,5,6,1)           180.0            -DE/DX =    0.0                 !
 ! D20   D(11,5,6,7)             0.0            -DE/DX =    0.0                 !
 --------------------------------------------------------------------------------
 GradGradGradGradGradGradGradGradGradGradGradGradGradGradGradGradGradGrad


 ----------------------------------------------------------------------

 Electric dipole moment (input orientation):
 (Debye = 10**-18 statcoulomb cm , SI units = C m)
                  (au)            (Debye)         (10**-30 SI)
   Tot        0.976269D+00      0.248143D+01      0.827715D+01
   x          0.858559D+00      0.218224D+01      0.727917D+01
   y         -0.464733D+00     -0.118123D+01     -0.394017D+01
   z          0.000000D+00      0.000000D+00      0.000000D+00

 Dipole polarizability, Alpha (input orientation).
 (esu units = cm**3 , SI units = C**2 m**2 J**-1)
 Alpha(0;0):
               (au)            (10**-24 esu)      (10**-40 SI)
   iso        0.891714D+02      0.132138D+02      0.147024D+02
   aniso      0.635512D+02      0.941732D+01      0.104782D+02
   xx         0.100572D+03      0.149033D+02      0.165822D+02
   yx         0.122769D+02      0.181924D+01      0.202418D+01
   yy         0.116608D+03      0.172795D+02      0.192260D+02
   zx         0.000000D+00      0.000000D+00      0.000000D+00
   zy         0.000000D+00      0.000000D+00      0.000000D+00
   zz         0.503342D+02      0.745875D+01      0.829898D+01

 ----------------------------------------------------------------------

 Dipole orientation:
     6         -1.21650559         -2.24740518         -5.14839068
     6         -0.12988205         -0.23994760         -3.93011700
     6         -0.12461136         -0.23021038         -1.29617909
     6         -1.21650689         -2.24740757         -0.01003102
     6         -2.30840150         -4.26460307         -1.29618157
     6         -2.30312977         -4.25486394         -3.93011912
    17         -3.63969100         -6.72406314         -5.63159952
    17          1.20667985          2.22925284         -5.63159352
     1          0.72429968          1.33809073         -0.29278242
     1         -1.21650745         -2.24740861          2.03603885
     1         -3.15731310         -5.83290522         -0.29278705

 Electric dipole moment (dipole orientation):
 (Debye = 10**-18 statcoulomb cm , SI units = C m)
                  (au)            (Debye)         (10**-30 SI)
   Tot        0.976269D+00      0.248143D+01      0.827715D+01
   x          0.000000D+00      0.000000D+00      0.000000D+00
   y          0.000000D+00      0.000000D+00      0.000000D+00
   z          0.976269D+00      0.248143D+01      0.827715D+01

 Dipole polarizability, Alpha (dipole orientation).
 (esu units = cm**3 , SI units = C**2 m**2 J**-1)
 Alpha(0;0):
               (au)            (10**-24 esu)      (10**-40 SI)
   iso        0.891714D+02      0.132138D+02      0.147024D+02
   aniso      0.635512D+02      0.941732D+01      0.104782D+02
   xx         0.668579D+02      0.990731D+01      0.110234D+02
   yx         0.305263D+02      0.452354D+01      0.503311D+01
   yy         0.106729D+03      0.158157D+02      0.175973D+02
   zx         0.110227D-04      0.163340D-05      0.181740D-05
   zy         0.203637D-04      0.301759D-05      0.335752D-05
   zz         0.939271D+02      0.139186D+02      0.154865D+02

 ----------------------------------------------------------------------
 1\1\GINC-SH03-01N19\Freq\UM062X\6-311++G(d,p)\C6H3Cl2(2)\JLAPIER\09-De
 c-2025\0\\#N Geom=AllCheck Guess=TCheck SCRF=Check GenChk UM062X/6-311
 ++G(d,p) Freq\\Neutral Radical (removed 2) 1_3\\0,2\C,-3.0396741967,0.
 1076239537,0.\C,-1.897704885,0.8630368959,0.\C,-0.6691495398,0.2046904
 474,0.\C,-0.648415898,-1.1867500169,0.\C,-1.8247626654,-1.9302176003,0
 .\C,-3.0477390397,-1.2615647983,0.\Cl,-4.5468415214,-2.139599241,0.\Cl
 ,-1.9822497149,2.5982900272,0.\H,0.2470295602,0.7818401456,0.\H,0.3037
 715211,-1.7021634916,0.\H,-1.8070336205,-3.0128863219,0.\\Version=ES64
 L-G16RevB.01\State=2-A'\HF=-1150.7083595\S2=0.762826\S2-1=0.\S2A=0.750
 072\RMSD=6.000e-09\RMSF=2.955e-05\ZeroPoint=0.0691956\Thermal=0.075829
 8\Dipole=0.8585594,-0.4647325,0.\DipoleDeriv=-0.1917581,-0.1216627,0.,
 -0.1216626,-0.3506655,0.,0.,0.,-0.0601738,0.1043326,0.0263103,0.,-0.00
 44265,1.2086349,0.,0.,0.,0.052678,-0.0561859,0.0381044,0.,0.0200211,-0
 .2381391,0.,0.,0.,-0.150265,0.0642954,-0.0191471,0.,-0.019147,0.039286
 7,0.,0.,0.,-0.097872,-0.2103493,-0.0806574,0.,-0.0625744,-0.0839761,0.
 ,0.,0.,-0.150265,0.8684512,0.4945927,0.,0.5253294,0.4445163,0.,0.,0.,0
 .0526781,-0.5984767,-0.338821,0.,-0.3339451,-0.2956781,0.,0.,0.,-0.041
 6995,-0.078209,0.0058235,0.,0.0009477,-0.8159458,0.,0.,0.,-0.0416995,0
 .0358779,-0.0400964,0.,-0.0334745,0.053637,0.,0.,0.,0.1444921,-0.01998
 71,0.0389017,0.,0.0389018,0.0308237,0.,0.,0.,0.1476343,0.082009,-0.003
 3479,0.,-0.0099698,0.0075058,0.,0.,0.,0.1444921\Polar=100.572463,12.27
 68689,116.6076377,0.,0.,50.3341681\Quadrupole=2.3770733,0.1678887,-2.5
 449621,-1.6913962,0.,0.\PG=CS [SG(C6H3Cl2)]\NImag=0\\0.42827262,0.1387
 5780,0.60950822,0.,0.,0.07124648,-0.27951843,-0.10787406,0.,0.62043765
 ,-0.13554840,-0.16197700,0.,0.03216864,0.53178943,0.,0.,-0.05453341,0.
 ,0.,0.11849994,-0.06362510,-0.04263581,0.,-0.28235827,0.12278094,0.,0.
 71880897,0.02398867,0.06856433,0.,0.03417651,-0.14615353,0.,0.05258371
 ,0.69187575,0.,0.,0.01379228,0.,0.,-0.06334021,0.,0.,0.12661284,-0.022
 71569,-0.03352966,0.,0.03555711,0.02720000,0.,-0.12972022,0.03948765,0
 .,0.73306534,-0.03352963,-0.06650977,0.,0.09544305,-0.02280493,0.,-0.0
 3734680,-0.34175012,0.,-0.03338806,0.68945542,0.,0.,-0.00378986,0.,0.,
 0.00605271,0.,0.,-0.06053297,0.,0.,0.13492962,0.03757912,0.09008165,0.
 ,-0.08477337,-0.00197099,0.,0.04165142,-0.08308374,0.,-0.27933785,-0.0
 5822240,0.,0.65178221,0.02345714,-0.03263988,0.,-0.00410331,0.00482927
 ,0.,-0.02679041,-0.03010358,0.,-0.13505689,-0.19213306,0.,0.00881049,0
 .75890343,0.,0.,0.01379227,0.,0.,-0.00262416,0.,0.,0.00558342,0.,0.,-0
 .06053289,0.,0.,0.12661271,-0.08567806,-0.00895794,0.,0.04381651,-0.03
 241552,0.,-0.01917930,0.04086622,0.,-0.06150321,-0.03618673,0.,-0.2587
 3338,0.13820995,0.,0.52883920,0.01871639,-0.35581713,0.,-0.08386166,-0
 .03212010,0.,0.03873387,-0.06076477,0.,0.03205637,0.07425535,0.,0.0496
 0551,-0.16977880,0.,-0.02765162,0.62338753,0.,0.,-0.05453341,0.,0.,0.0
 0482325,0.,0.,-0.00262417,0.,0.,0.00605270,0.,0.,-0.06334013,0.,0.,0.1
 1849989,-0.01107816,-0.01963220,0.,0.00032264,0.00239827,0.,-0.0016240
 1,-0.00258489,0.,-0.00050483,0.00701650,0.,-0.03799311,-0.02541154,0.,
 -0.14251285,-0.05412096,0.,0.19330122,-0.03133130,-0.02171837,0.,0.002
 90751,-0.00207188,0.,-0.00179417,0.00043801,0.,0.00074838,-0.00051697,
 0.,0.00328736,0.00566375,0.,-0.06777541,-0.06913560,0.,0.09457772,0.08
 707300,0.,0.,0.00184557,0.,0.,0.00407090,0.,0.,-0.00025682,0.,0.,0.004
 42012,0.,0.,0.00592686,0.,0.,-0.02226458,0.,0.,0.00977870,0.00479452,-
 0.02096543,0.,-0.03526841,0.00226220,0.,0.00273989,0.02988871,0.,-0.00
 406819,-0.00157873,0.,0.00182629,0.00045910,0.,-0.00378501,0.00022495,
 0.,-0.00003693,-0.00071751,0.,0.03223566,-0.00926632,-0.03759107,0.,0.
 01591665,-0.17638056,0.,0.00118978,-0.03506931,0.,0.00468940,0.0030464
 0,0.,-0.00033163,-0.00301230,0.,-0.00028429,0.00203577,0.,-0.00064765,
 -0.00092846,0.,-0.01060861,0.24813916,0.,0.,0.00184557,0.,0.,-0.022264
 56,0.,0.,0.00592688,0.,0.,0.00442012,0.,0.,-0.00025682,0.,0.,0.0040709
 0,0.,0.,-0.00037104,0.,0.,0.00977865,-0.00460657,0.00194050,0.,-0.0187
 4867,-0.01528731,0.,-0.26636726,-0.13080902,0.,0.00579955,0.00298941,0
 .,0.00147255,0.00089887,0.,0.00071162,0.00131182,0.,0.00006706,-0.0000
 6736,0.,0.00128426,-0.00046541,0.,0.27964107,0.00317113,0.00011365,0.,
 0.01541082,0.00844062,0.,-0.13234806,-0.13778645,0.,-0.02629546,-0.009
 53354,0.,0.00112363,-0.00484231,0.,0.00038038,-0.00119178,0.,-0.000081
 61,0.00017347,0.,0.00010185,0.00108602,0.,0.13957370,0.14311053,0.,0.,
 0.00571360,0.,0.,0.00333315,0.,0.,-0.03509406,0.,0.,0.00305336,0.,0.,0
 .00664592,0.,0.,-0.00096894,0.,0.,-0.00037080,0.,0.,-0.00264081,0.,0.,
 0.02413672,0.00021350,-0.00098867,0.,0.00193066,-0.00059087,0.,0.00355
 410,-0.00214174,0.,-0.28229252,0.12115045,0.,-0.01772054,0.01433006,0.
 ,-0.00223050,-0.00283615,0.,-0.00125276,0.00004498,0.,0.00006808,-0.00
 020358,0.,0.00048148,0.00026445,0.,0.29647550,-0.00098867,-0.00107784,
 0.,-0.00011864,-0.00446858,0.,0.02822378,-0.00976077,0.,0.12115046,-0.
 12405426,0.,-0.01603547,0.01151387,0.,-0.00330838,-0.00030741,0.,-0.00
 106617,-0.00003550,0.,0.00090757,-0.00135634,0.,-0.00033340,0.00085233
 ,0.,-0.12888591,0.12813371,0.,0.,-0.00109269,0.,0.,0.00695134,0.,0.,0.
 00328688,0.,0.,-0.03712627,0.,0.,0.00328688,0.,0.,0.00695134,0.,0.,-0.
 00013809,0.,0.,-0.00013809,0.,0.,-0.00410180,0.,0.,0.02622230,-0.00363
 776,0.00380383,0.,-0.00139741,-0.00099696,0.,-0.00388021,-0.00237207,0
 .,0.00572052,-0.02634707,0.,-0.05575334,0.00519655,0.,0.00025500,0.027
 82147,0.,0.00131173,0.00011979,0.,0.00020985,0.00001164,0.,0.00026492,
 -0.00130084,0.,0.00077302,0.00045484,0.,0.05613368,0.00257319,-0.00085
 515,0.,-0.00006551,0.00091725,0.,-0.00259684,0.00051045,0.,0.00293780,
 -0.00945453,0.,0.00673559,-0.34840039,0.,-0.00287666,-0.01056306,0.,-0
 .00044747,0.00105855,0.,0.00002589,0.00003067,0.,0.00024819,-0.0004225
 3,0.,-0.00014300,0.00056079,0.,-0.00639119,0.36661795,0.,0.,0.00571360
 ,0.,0.,-0.00096895,0.,0.,0.00664593,0.,0.,0.00305336,0.,0.,-0.03509407
 ,0.,0.,0.00333315,0.,0.,-0.00264081,0.,0.,-0.00037080,0.,0.,0.00029367
 ,0.,0.,-0.00410180,0.,0.,0.02413672\\0.00004736,-0.00002555,0.,-0.0000
 0571,0.00000850,0.,-0.00005503,-0.00006596,0.,0.00007482,-0.00004073,0
 .,0.00002525,0.00008240,0.,-0.00000997,-0.00000002,0.,-0.00001047,-0.0
 0001728,0.,0.00000878,0.00001801,0.,-0.00002023,0.00000575,0.,-0.00003
 891,0.00002106,0.,-0.00001590,0.00001382,0.\\\@


 CURIOUSER AND CURIOUSER

                  -- ALICE, IN WONDERLAND
 Job cpu time:       0 days  0 hours 24 minutes 33.0 seconds.
 Elapsed time:       0 days  0 hours  6 minutes  9.7 seconds.
 File lengths (MBytes):  RWF=    142 Int=      0 D2E=      0 Chk=     34 Scr=      1
 Normal termination of Gaussian 16 at Tue Dec  9 13:47:48 2025.
