 Entering Gaussian System, Link 0=g16
 Initial command:
 /share/software/user/restricted/gaussian/g16.B01/l1.exe "/home/users/jlapier/Chloroaromatics/Gau-23931.inp" -scrdir="/home/users/jlapier/Chloroaromatics/"
 Entering Link 1 = /share/software/user/restricted/gaussian/g16.B01/l1.exe PID=     23934.
  
 Copyright (c) 1988-2017, Gaussian, Inc.  All Rights Reserved.
  
 This is part of the Gaussian(R) 16 program.  It is based on
 the Gaussian(R) 09 system (copyright 2009, Gaussian, Inc.),
 the Gaussian(R) 03 system (copyright 2003, Gaussian, Inc.),
 the Gaussian(R) 98 system (copyright 1998, Gaussian, Inc.),
 the Gaussian(R) 94 system (copyright 1995, Gaussian, Inc.),
 the Gaussian 92(TM) system (copyright 1992, Gaussian, Inc.),
 the Gaussian 90(TM) system (copyright 1990, Gaussian, Inc.),
 the Gaussian 88(TM) system (copyright 1988, Gaussian, Inc.),
 the Gaussian 86(TM) system (copyright 1986, Carnegie Mellon
 University), and the Gaussian 82(TM) system (copyright 1983,
 Carnegie Mellon University). Gaussian is a federally registered
 trademark of Gaussian, Inc.
  
 This software contains proprietary and confidential information,
 including trade secrets, belonging to Gaussian, Inc.
  
 This software is provided under written license and may be
 used, copied, transmitted, or stored only in accord with that
 written license.
  
 The following legend is applicable only to US Government
 contracts under FAR:
  
                    RESTRICTED RIGHTS LEGEND
  
 Use, reproduction and disclosure by the US Government is
 subject to restrictions as set forth in subparagraphs (a)
 and (c) of the Commercial Computer Software - Restricted
 Rights clause in FAR 52.227-19.
  
 Gaussian, Inc.
 340 Quinnipiac St., Bldg. 40, Wallingford CT 06492
  
  
 ---------------------------------------------------------------
 Warning -- This program may not be used in any manner that
 competes with the business of Gaussian, Inc. or will provide
 assistance to any competitor of Gaussian, Inc.  The licensee
 of this program is prohibited from giving any competitor of
 Gaussian, Inc. access to this program.  By using this program,
 the user acknowledges that Gaussian, Inc. is engaged in the
 business of creating and licensing software in the field of
 computational chemistry and represents and warrants to the
 licensee that it is not a competitor of Gaussian, Inc. and that
 it will not use this program in any manner prohibited above.
 ---------------------------------------------------------------
  

 Cite this work as:
 Gaussian 16, Revision B.01,
 M. J. Frisch, G. W. Trucks, H. B. Schlegel, G. E. Scuseria, 
 M. A. Robb, J. R. Cheeseman, G. Scalmani, V. Barone, 
 G. A. Petersson, H. Nakatsuji, X. Li, M. Caricato, A. V. Marenich, 
 J. Bloino, B. G. Janesko, R. Gomperts, B. Mennucci, H. P. Hratchian, 
 J. V. Ortiz, A. F. Izmaylov, J. L. Sonnenberg, D. Williams-Young, 
 F. Ding, F. Lipparini, F. Egidi, J. Goings, B. Peng, A. Petrone, 
 T. Henderson, D. Ranasinghe, V. G. Zakrzewski, J. Gao, N. Rega, 
 G. Zheng, W. Liang, M. Hada, M. Ehara, K. Toyota, R. Fukuda, 
 J. Hasegawa, M. Ishida, T. Nakajima, Y. Honda, O. Kitao, H. Nakai, 
 T. Vreven, K. Throssell, J. A. Montgomery, Jr., J. E. Peralta, 
 F. Ogliaro, M. J. Bearpark, J. J. Heyd, E. N. Brothers, K. N. Kudin, 
 V. N. Staroverov, T. A. Keith, R. Kobayashi, J. Normand, 
 K. Raghavachari, A. P. Rendell, J. C. Burant, S. S. Iyengar, 
 J. Tomasi, M. Cossi, J. M. Millam, M. Klene, C. Adamo, R. Cammi, 
 J. W. Ochterski, R. L. Martin, K. Morokuma, O. Farkas, 
 J. B. Foresman, and D. J. Fox, Gaussian, Inc., Wallingford CT, 2016.
 
 ******************************************
 Gaussian 16:  ES64L-G16RevB.01 20-Dec-2017
                 9-Dec-2025 
 ******************************************
 %mem=8GB
 %nprocshare=4
 Will use up to    4 processors via shared memory.
 %oldchk=geometry_chks/1_5ClBzNeutralRadical.chk
 %chk=frequency_chks/1_5ClBzNeutralRadical_Freq.chk
 Copying data from "geometry_chks/1_5ClBzNeutralRadical.chk" to current chk file "frequency_chks/1_5ClBzNeutralRadical_Freq.chk"
 IOpt=  2 FromEx=T IUOpen= 4 IOptOp= 5 NList=   0 IFRang= 0 IUIn= 4 IUOut= 2.
 -------------------------------------------------------
 # opt freq 6-311++g(d,p) guess=read geom=allcheck m062x
 -------------------------------------------------------
 1/18=20,19=15,26=3,29=7,38=1/1,3;
 2/9=110,12=2,40=1/2;
 3/5=4,6=6,7=1111,11=2,14=-4,25=1,30=1,71=1,74=-55,116=-2/1,2,3;
 4/5=1/1;
 5/5=2,38=6/2;
 6/7=2,8=2,9=2,10=2,28=1/1;
 7//1,2,3,16;
 1/18=20,19=15,26=3/3(2);
 2/9=110/2;
 99//99;
 2/9=110/2;
 3/5=4,6=6,7=1111,11=2,14=-2,25=1,30=1,71=1,74=-55/1,2,3;
 4/5=5,16=3,69=1/1;
 5/5=2,38=5/2;
 7//1,2,3,16;
 1/18=20,19=15,26=3/3(-5);
 2/9=110/2;
 6/7=2,8=2,9=2,10=2,19=2,28=1/1;
 99/9=1/99;
 Structure from the checkpoint file:  "frequency_chks/1_5ClBzNeutralRadical_Freq.chk"
 -------------------------------
 Neutral Radical (removed 3) 1_5
 -------------------------------
 Charge =  0 Multiplicity = 2
 Redundant internal coordinates found in file.  (old form).
 C,0,-3.2328345506,0.2045635926,0.
 C,0,-2.0083020427,0.819135765,0.
 C,0,-0.7518754055,0.2727189836,0.
 C,0,-0.7328170825,-1.1411969218,0.
 C,0,-1.9343479661,-1.8729094681,0.
 C,0,-3.1742387619,-1.2082658221,0.
 Cl,0,-4.6076937844,-2.1078856987,0.
 H,0,-4.1813161113,0.7554387235,0.
 H,0,0.1649416453,0.8748423132,0.
 Cl,0,0.7478664276,-1.9607614208,0.
 H,0,-1.9041023679,-2.9739100463,0.
 Recover connectivity data from disk.

 GradGradGradGradGradGradGradGradGradGradGradGradGradGradGradGradGradGrad
 Berny optimization.
 Initialization pass.
                           ----------------------------
                           !    Initial Parameters    !
                           ! (Angstroms and Degrees)  !
 --------------------------                            --------------------------
 ! Name  Definition              Value          Derivative Info.                !
 --------------------------------------------------------------------------------
 ! R1    R(1,2)                  1.3701         estimate D2E/DX2                !
 ! R2    R(1,6)                  1.414          estimate D2E/DX2                !
 ! R3    R(1,8)                  1.0969         estimate D2E/DX2                !
 ! R4    R(2,3)                  1.3701         estimate D2E/DX2                !
 ! R5    R(3,4)                  1.414          estimate D2E/DX2                !
 ! R6    R(3,9)                  1.0969         estimate D2E/DX2                !
 ! R7    R(4,5)                  1.4068         estimate D2E/DX2                !
 ! R8    R(4,10)                 1.6924         estimate D2E/DX2                !
 ! R9    R(5,6)                  1.4068         estimate D2E/DX2                !
 ! R10   R(5,11)                 1.1014         estimate D2E/DX2                !
 ! R11   R(6,7)                  1.6924         estimate D2E/DX2                !
 ! A1    A(2,1,6)              114.2764         estimate D2E/DX2                !
 ! A2    A(2,1,8)              123.2008         estimate D2E/DX2                !
 ! A3    A(6,1,8)              122.5228         estimate D2E/DX2                !
 ! A4    A(1,2,3)              129.8446         estimate D2E/DX2                !
 ! A5    A(2,3,4)              114.2763         estimate D2E/DX2                !
 ! A6    A(2,3,9)              123.2008         estimate D2E/DX2                !
 ! A7    A(4,3,9)              122.5228         estimate D2E/DX2                !
 ! A8    A(3,4,5)              120.5685         estimate D2E/DX2                !
 ! A9    A(3,4,10)             119.737          estimate D2E/DX2                !
 ! A10   A(5,4,10)             119.6946         estimate D2E/DX2                !
 ! A11   A(4,5,6)              120.4657         estimate D2E/DX2                !
 ! A12   A(4,5,11)             119.7672         estimate D2E/DX2                !
 ! A13   A(6,5,11)             119.7671         estimate D2E/DX2                !
 ! A14   A(1,6,5)              120.5685         estimate D2E/DX2                !
 ! A15   A(1,6,7)              119.737          estimate D2E/DX2                !
 ! A16   A(5,6,7)              119.6946         estimate D2E/DX2                !
 ! D1    D(6,1,2,3)              0.0            estimate D2E/DX2                !
 ! D2    D(8,1,2,3)            180.0            estimate D2E/DX2                !
 ! D3    D(2,1,6,5)              0.0            estimate D2E/DX2                !
 ! D4    D(2,1,6,7)            180.0            estimate D2E/DX2                !
 ! D5    D(8,1,6,5)            180.0            estimate D2E/DX2                !
 ! D6    D(8,1,6,7)              0.0            estimate D2E/DX2                !
 ! D7    D(1,2,3,4)              0.0            estimate D2E/DX2                !
 ! D8    D(1,2,3,9)            180.0            estimate D2E/DX2                !
 ! D9    D(2,3,4,5)              0.0            estimate D2E/DX2                !
 ! D10   D(2,3,4,10)           180.0            estimate D2E/DX2                !
 ! D11   D(9,3,4,5)            180.0            estimate D2E/DX2                !
 ! D12   D(9,3,4,10)             0.0            estimate D2E/DX2                !
 ! D13   D(3,4,5,6)              0.0            estimate D2E/DX2                !
 ! D14   D(3,4,5,11)           180.0            estimate D2E/DX2                !
 ! D15   D(10,4,5,6)           180.0            estimate D2E/DX2                !
 ! D16   D(10,4,5,11)            0.0            estimate D2E/DX2                !
 ! D17   D(4,5,6,1)              0.0            estimate D2E/DX2                !
 ! D18   D(4,5,6,7)            180.0            estimate D2E/DX2                !
 ! D19   D(11,5,6,1)           180.0            estimate D2E/DX2                !
 ! D20   D(11,5,6,7)             0.0            estimate D2E/DX2                !
 --------------------------------------------------------------------------------
 Trust Radius=3.00D-01 FncErr=1.00D-07 GrdErr=1.00D-06 EigMax=2.50D+02 EigMin=1.00D-04
 Number of steps in this run=     57 maximum allowed number of steps=    100.
 GradGradGradGradGradGradGradGradGradGradGradGradGradGradGradGradGradGrad

                          Input orientation:                          
 ---------------------------------------------------------------------
 Center     Atomic      Atomic             Coordinates (Angstroms)
 Number     Number       Type             X           Y           Z
 ---------------------------------------------------------------------
      1          6           0       -3.232835    0.204564   -0.000000
      2          6           0       -2.008302    0.819136    0.000000
      3          6           0       -0.751875    0.272719    0.000000
      4          6           0       -0.732817   -1.141197    0.000000
      5          6           0       -1.934348   -1.872909    0.000000
      6          6           0       -3.174239   -1.208266   -0.000000
      7         17           0       -4.607694   -2.107886   -0.000000
      8          1           0       -4.181316    0.755439   -0.000000
      9          1           0        0.164942    0.874842    0.000000
     10         17           0        0.747866   -1.960761    0.000000
     11          1           0       -1.904102   -2.973910    0.000000
 ---------------------------------------------------------------------
                    Distance matrix (angstroms):
                    1          2          3          4          5
     1  C    0.000000
     2  C    1.370102   0.000000
     3  C    2.481895   1.370102   0.000000
     4  C    2.839218   2.338753   1.414044   0.000000
     5  C    2.449890   2.693061   2.449890   1.406798   0.000000
     6  C    1.414044   2.338753   2.839218   2.442343   1.406798
     7  Cl   2.690290   3.914625   4.531513   3.993640   2.683653
     8  H    1.096850   2.173947   3.463247   3.935654   3.457901
     9  H    3.463258   2.173958   1.096862   2.206895   3.457912
    10  Cl   4.531513   3.914626   2.690290   1.692368   2.683653
    11  H    3.445029   3.794477   3.445029   2.175028   1.101416
                    6          7          8          9         10
     6  C    0.000000
     7  Cl   1.692368   0.000000
     8  H    2.206885   2.894896   0.000000
     9  H    3.935666   5.628029   4.347898   0.000000
    10  Cl   3.993640   5.357581   5.628018   2.894901   0.000000
    11  H    2.175028   2.838909   4.369639   4.369650   2.838910
                   11
    11  H    0.000000
 Stoichiometry    C6H3Cl2(2)
 Framework group  CS[SG(C6H3Cl2)]
 Deg. of freedom    19
 Full point group                 CS      NOp   2
 Largest Abelian subgroup         CS      NOp   2
 Largest concise Abelian subgroup C1      NOp   1
                         Standard orientation:                         
 ---------------------------------------------------------------------
 Center     Atomic      Atomic             Coordinates (Angstroms)
 Number     Number       Type             X           Y           Z
 ---------------------------------------------------------------------
      1          6           0       -1.445575   -1.240948    0.000000
      2          6           0       -2.026288   -0.000000    0.000000
      3          6           0       -1.445575    1.240948    0.000000
      4          6           0       -0.031669    1.221171    0.000000
      5          6           0        0.666773   -0.000000   -0.000000
      6          6           0       -0.031669   -1.221172    0.000000
      7         17           0        0.828247   -2.678791   -0.000000
      8          1           0       -2.022289   -2.173944    0.000000
      9          1           0       -2.022294    2.173954    0.000000
     10         17           0        0.828248    2.678790   -0.000000
     11          1           0        1.768188   -0.000001   -0.000000
 ---------------------------------------------------------------------
 Rotational constants (GHZ):           3.0806426           0.8651642           0.6754668
 Standard basis: 6-311++G(d,p) (5D, 7F)
 There are   166 symmetry adapted cartesian basis functions of A'  symmetry.
 There are    55 symmetry adapted cartesian basis functions of A"  symmetry.
 There are   158 symmetry adapted basis functions of A'  symmetry.
 There are    55 symmetry adapted basis functions of A"  symmetry.
   213 basis functions,   349 primitive gaussians,   221 cartesian basis functions
    37 alpha electrons       36 beta electrons
       nuclear repulsion energy       442.2310868155 Hartrees.
 NAtoms=   11 NActive=   11 NUniq=   11 SFac= 1.00D+00 NAtFMM=   60 NAOKFM=F Big=F
 Integral buffers will be    131072 words long.
 Raffenetti 2 integral format.
 Two-electron integral symmetry is turned on.
 One-electron integrals computed using PRISM.
 NBasis=   213 RedAO= T EigKep=  1.70D-06  NBF=   158    55
 NBsUse=   213 1.00D-06 EigRej= -1.00D+00 NBFU=   158    55
 Initial guess from the checkpoint file:  "frequency_chks/1_5ClBzNeutralRadical_Freq.chk"
 B after Tr=    -0.000000   -0.000000    0.000000
         Rot=    1.000000   -0.000000    0.000000   -0.000000 Ang=   0.00 deg.
 Initial guess orbital symmetries:
 Alpha Orbitals:
       Occupied  (A') (A') (A') (A') (A') (A') (A') (A') (A') (A')
                 (A') (A") (A') (A") (A') (A') (A") (A') (A') (A")
                 (A") (A") (A") (A') (A') (A") (A') (A') (A') (A')
                 (A') (A') (A') (A') (A') (A') (A')
       Virtual   (A') (A') (A') (A') (A') (A') (A') (A') (A') (A')
                 (A') (A') (A') (A') (A') (A') (A') (A') (A') (A')
                 (A') (A') (A') (A') (A') (A') (A') (A') (A') (A')
                 (A') (A') (A') (A') (A') (A') (A') (A') (A') (A')
                 (A') (A') (A') (A') (A') (A') (A') (A') (A') (A')
                 (A') (A') (A') (A') (A') (A') (A') (A') (A') (A')
                 (A') (A') (A') (A') (A') (A') (A') (A') (A') (A')
                 (A') (A') (A') (A') (A') (A') (A') (A') (A') (A')
                 (A') (A') (A') (A') (A') (A') (A') (A') (A') (A')
                 (A') (A') (A') (A') (A') (A') (A') (A') (A') (A')
                 (A') (A') (A') (A') (A') (A') (A') (A') (A') (A')
                 (A') (A') (A') (A') (A') (A') (A') (A') (A') (A')
                 (A') (A') (A') (A') (A') (A') (A') (A') (A') (A")
                 (A") (A") (A") (A") (A") (A") (A") (A") (A") (A")
                 (A") (A") (A") (A") (A") (A") (A") (A") (A") (A")
                 (A") (A") (A") (A") (A") (A") (A") (A") (A") (A")
                 (A") (A") (A") (A") (A") (A") (A") (A") (A") (A")
                 (A") (A") (A") (A") (A") (A")
 Beta  Orbitals:
       Occupied  (A') (A') (A') (A') (A') (A') (A') (A') (A') (A')
                 (A') (A") (A') (A") (A') (A') (A") (A') (A") (A")
                 (A") (A') (A") (A') (A') (A") (A') (A') (A') (A')
                 (A') (A') (A') (A') (A') (A')
       Virtual   (A') (A') (A') (A') (A') (A') (A') (A') (A') (A')
                 (A') (A') (A') (A') (A') (A') (A') (A') (A') (A')
                 (A') (A') (A') (A') (A') (A') (A') (A') (A') (A')
                 (A') (A') (A') (A') (A') (A') (A') (A') (A') (A')
                 (A') (A') (A') (A') (A') (A') (A') (A') (A') (A')
                 (A') (A') (A') (A') (A') (A') (A') (A') (A') (A')
                 (A') (A') (A') (A') (A') (A') (A') (A') (A') (A')
                 (A') (A') (A') (A') (A') (A') (A') (A') (A') (A')
                 (A') (A') (A') (A') (A') (A') (A') (A') (A') (A')
                 (A') (A') (A') (A') (A') (A') (A') (A') (A') (A')
                 (A') (A') (A') (A') (A') (A') (A') (A') (A') (A')
                 (A') (A') (A') (A') (A') (A') (A') (A') (A') (A')
                 (A') (A') (A') (A') (A') (A') (A') (A') (A') (A')
                 (A") (A") (A") (A") (A") (A") (A") (A") (A") (A")
                 (A") (A") (A") (A") (A") (A") (A") (A") (A") (A")
                 (A") (A") (A") (A") (A") (A") (A") (A") (A") (A")
                 (A") (A") (A") (A") (A") (A") (A") (A") (A") (A")
                 (A") (A") (A") (A") (A") (A") (A")
 Initial guess <Sx>= 0.0000 <Sy>= 0.0000 <Sz>= 0.5000 <S**2>= 0.7500 S= 0.5000
 Keep R1 and R2 ints in memory in symmetry-blocked form, NReq=411615841.
 Requested convergence on RMS density matrix=1.00D-08 within 128 cycles.
 Requested convergence on MAX density matrix=1.00D-06.
 Requested convergence on             energy=1.00D-06.
 No special actions if energy rises.
 SCF Done:  E(UM062X) =  -1150.70884855     A.U. after   24 cycles
            NFock= 24  Conv=0.72D-08     -V/T= 2.0025
 <Sx>= 0.0000 <Sy>= 0.0000 <Sz>= 0.5000 <S**2>= 0.7624 S= 0.5062
 <L.S>=  0.00000000000    
 Annihilation of the first spin contaminant:
 S**2 before annihilation     0.7624,   after     0.7501

 **********************************************************************

            Population analysis using the SCF Density.

 **********************************************************************

 Orbital symmetries:
 Alpha Orbitals:
       Occupied  (A') (A') (A') (A') (A') (A') (A') (A') (A') (A')
                 (A') (A') (A") (A") (A') (A') (A') (A') (A') (A')
                 (A') (A') (A') (A') (A') (A') (A') (A") (A') (A')
                 (A") (A') (A") (A') (A") (A') (A")
       Virtual   (A") (A") (A') (A') (A') (A') (A') (A") (A') (A')
                 (A') (A") (A") (A') (A') (A') (A") (A") (A') (A')
                 (A') (A") (A') (A") (A') (A') (A') (A') (A") (A")
                 (A') (A') (A') (A') (A') (A') (A') (A') (A') (A')
                 (A') (A') (A') (A') (A') (A') (A') (A') (A') (A")
                 (A") (A') (A') (A') (A') (A") (A') (A') (A") (A')
                 (A") (A") (A") (A') (A') (A') (A') (A") (A') (A')
                 (A') (A') (A") (A') (A') (A') (A') (A") (A') (A")
                 (A') (A") (A') (A') (A') (A') (A') (A') (A") (A')
                 (A") (A") (A') (A") (A') (A') (A') (A') (A") (A")
                 (A') (A') (A') (A') (A') (A") (A") (A") (A') (A')
                 (A') (A') (A") (A') (A') (A") (A") (A') (A") (A')
                 (A') (A') (A") (A') (A') (A") (A") (A") (A') (A')
                 (A') (A') (A') (A') (A') (A') (A") (A') (A') (A')
                 (A') (A') (A") (A") (A") (A") (A') (A") (A') (A')
                 (A') (A') (A') (A') (A') (A') (A') (A') (A') (A')
                 (A') (A') (A') (A') (A') (A') (A') (A') (A") (A")
                 (A') (A') (A') (A') (A') (A')
 Beta  Orbitals:
       Occupied  (A') (A') (A') (A') (A') (A') (A') (A') (A') (A')
                 (A') (A') (A") (A") (A') (A') (A') (A') (A') (A')
                 (A') (A') (A') (A') (A') (A') (A') (A") (A') (A')
                 (A") (A') (A") (A') (A") (A")
       Virtual   (A') (A") (A') (A") (A') (A') (A') (A') (A") (A')
                 (A") (A') (A") (A') (A') (A') (A') (A") (A") (A')
                 (A') (A') (A') (A") (A") (A') (A') (A') (A') (A")
                 (A') (A") (A') (A') (A') (A') (A') (A') (A') (A')
                 (A') (A') (A') (A') (A') (A') (A') (A') (A') (A')
                 (A") (A") (A') (A') (A') (A') (A") (A') (A') (A')
                 (A") (A") (A") (A') (A") (A') (A') (A") (A') (A')
                 (A') (A') (A') (A") (A') (A') (A') (A') (A") (A')
                 (A") (A') (A") (A') (A') (A') (A') (A') (A') (A")
                 (A') (A") (A") (A') (A") (A') (A') (A') (A') (A")
                 (A") (A') (A') (A') (A') (A') (A") (A") (A") (A')
                 (A') (A') (A') (A") (A') (A') (A") (A") (A') (A")
                 (A') (A') (A') (A") (A') (A') (A") (A") (A") (A')
                 (A') (A') (A') (A') (A') (A') (A') (A") (A') (A')
                 (A') (A') (A') (A") (A") (A") (A") (A') (A") (A')
                 (A') (A') (A') (A') (A') (A') (A') (A') (A') (A')
                 (A') (A') (A') (A') (A') (A') (A') (A') (A') (A")
                 (A") (A') (A') (A') (A') (A') (A')
 The electronic state is 2-A'.
 Alpha  occ. eigenvalues -- -102.69313-102.69313 -10.63583 -10.63583 -10.59497
 Alpha  occ. eigenvalues --  -10.58033 -10.58020 -10.58016  -9.83663  -9.83663
 Alpha  occ. eigenvalues --   -7.56191  -7.56191  -7.55503  -7.55503  -7.55481
 Alpha  occ. eigenvalues --   -7.55481  -1.03628  -1.00408  -0.94863  -0.85633
 Alpha  occ. eigenvalues --   -0.84762  -0.70114  -0.70104  -0.61481  -0.57852
 Alpha  occ. eigenvalues --   -0.54894  -0.52819  -0.50507  -0.49006  -0.46799
 Alpha  occ. eigenvalues --   -0.45320  -0.41061  -0.40851  -0.39025  -0.32872
 Alpha  occ. eigenvalues --   -0.32178  -0.31164
 Alpha virt. eigenvalues --   -0.01570  -0.00778  -0.00174   0.01428   0.01430
 Alpha virt. eigenvalues --    0.03448   0.03840   0.05029   0.05810   0.06718
 Alpha virt. eigenvalues --    0.08096   0.08144   0.08875   0.09005   0.10501
 Alpha virt. eigenvalues --    0.11333   0.11761   0.11984   0.12064   0.13109
 Alpha virt. eigenvalues --    0.13197   0.13775   0.13931   0.14796   0.14880
 Alpha virt. eigenvalues --    0.15276   0.16403   0.17201   0.17851   0.18976
 Alpha virt. eigenvalues --    0.19299   0.20163   0.21416   0.22549   0.22864
 Alpha virt. eigenvalues --    0.23908   0.25173   0.26191   0.27002   0.27674
 Alpha virt. eigenvalues --    0.28293   0.28744   0.30307   0.31670   0.34488
 Alpha virt. eigenvalues --    0.35364   0.35406   0.44983   0.45630   0.47020
 Alpha virt. eigenvalues --    0.48327   0.49196   0.49716   0.51791   0.52162
 Alpha virt. eigenvalues --    0.54800   0.56533   0.56866   0.58936   0.59565
 Alpha virt. eigenvalues --    0.61063   0.63002   0.63566   0.64317   0.65616
 Alpha virt. eigenvalues --    0.68541   0.69281   0.69513   0.73432   0.76409
 Alpha virt. eigenvalues --    0.76705   0.78869   0.83108   0.84557   0.86907
 Alpha virt. eigenvalues --    0.87251   0.87908   0.87940   0.90684   0.90908
 Alpha virt. eigenvalues --    0.91390   0.91953   0.93716   0.96448   0.97071
 Alpha virt. eigenvalues --    0.98721   0.99977   1.02318   1.02956   1.08473
 Alpha virt. eigenvalues --    1.11803   1.12497   1.14415   1.18170   1.20963
 Alpha virt. eigenvalues --    1.21457   1.27655   1.28197   1.34619   1.37864
 Alpha virt. eigenvalues --    1.43640   1.51294   1.53550   1.55616   1.57333
 Alpha virt. eigenvalues --    1.61075   1.63223   1.63234   1.70102   1.70129
 Alpha virt. eigenvalues --    1.82257   1.84666   1.88925   1.89655   1.90671
 Alpha virt. eigenvalues --    1.93682   1.97432   1.98454   1.99824   2.02124
 Alpha virt. eigenvalues --    2.05902   2.10773   2.15750   2.27232   2.27825
 Alpha virt. eigenvalues --    2.29476   2.31700   2.32381   2.40219   2.41096
 Alpha virt. eigenvalues --    2.47186   2.49485   2.56178   2.57870   2.59224
 Alpha virt. eigenvalues --    2.66273   2.68281   2.69616   2.73376   2.73785
 Alpha virt. eigenvalues --    2.77138   2.78887   2.80020   2.83156   2.91040
 Alpha virt. eigenvalues --    2.92522   2.98749   3.09658   3.15667   3.21573
 Alpha virt. eigenvalues --    3.28229   3.33989   3.41482   3.53972   3.68451
 Alpha virt. eigenvalues --    3.75098   3.85892   4.10757   4.12146   4.76225
 Alpha virt. eigenvalues --    9.95580   9.99407  23.50009  23.89742  23.90019
 Alpha virt. eigenvalues --   24.07990  24.09586  24.22773  25.92479  25.92558
 Alpha virt. eigenvalues --   26.19471  26.26467  26.73012  26.73262 216.05377
 Alpha virt. eigenvalues --  216.09872
  Beta  occ. eigenvalues -- -102.69294-102.69294 -10.63480 -10.63479 -10.58535
  Beta  occ. eigenvalues --  -10.58065 -10.58045 -10.58035  -9.83656  -9.83656
  Beta  occ. eigenvalues --   -7.56154  -7.56154  -7.55490  -7.55490  -7.55471
  Beta  occ. eigenvalues --   -7.55471  -1.03257  -1.00245  -0.93797  -0.84808
  Beta  occ. eigenvalues --   -0.84337  -0.69713  -0.68111  -0.60787  -0.57093
  Beta  occ. eigenvalues --   -0.54243  -0.52411  -0.50160  -0.47950  -0.46214
  Beta  occ. eigenvalues --   -0.45228  -0.40428  -0.39888  -0.38938  -0.32068
  Beta  occ. eigenvalues --   -0.31291
  Beta virt. eigenvalues --   -0.06831  -0.01607   0.00069   0.00375   0.01546
  Beta virt. eigenvalues --    0.01618   0.03379   0.03889   0.05303   0.05848
  Beta virt. eigenvalues --    0.08178   0.08192   0.08600   0.08659   0.08938
  Beta virt. eigenvalues --    0.10139   0.11286   0.11781   0.12015   0.12579
  Beta virt. eigenvalues --    0.12963   0.12978   0.13763   0.13764   0.14770
  Beta virt. eigenvalues --    0.14873   0.15522   0.16932   0.17060   0.17933
  Beta virt. eigenvalues --    0.19564   0.19867   0.20235   0.21324   0.22677
  Beta virt. eigenvalues --    0.23214   0.24170   0.24976   0.25504   0.27148
  Beta virt. eigenvalues --    0.27762   0.28362   0.28894   0.30504   0.32313
  Beta virt. eigenvalues --    0.34892   0.35547   0.35737   0.45120   0.45601
  Beta virt. eigenvalues --    0.47024   0.48325   0.49240   0.49835   0.51768
  Beta virt. eigenvalues --    0.52459   0.55064   0.56716   0.56991   0.57544
  Beta virt. eigenvalues --    0.59049   0.60976   0.63195   0.63568   0.63670
  Beta virt. eigenvalues --    0.64209   0.68616   0.69361   0.70604   0.73954
  Beta virt. eigenvalues --    0.76277   0.76872   0.78091   0.83258   0.84904
  Beta virt. eigenvalues --    0.87000   0.87114   0.87398   0.88026   0.90580
  Beta virt. eigenvalues --    0.90956   0.91729   0.91988   0.92824   0.96922
  Beta virt. eigenvalues --    0.97136   0.98706   0.99882   1.02441   1.03410
  Beta virt. eigenvalues --    1.08454   1.12202   1.12906   1.14849   1.19706
  Beta virt. eigenvalues --    1.21018   1.21586   1.27199   1.28247   1.35557
  Beta virt. eigenvalues --    1.38170   1.45532   1.51949   1.54717   1.55751
  Beta virt. eigenvalues --    1.57379   1.61837   1.63299   1.63409   1.70170
  Beta virt. eigenvalues --    1.70478   1.83760   1.85352   1.88981   1.90500
  Beta virt. eigenvalues --    1.90943   1.93983   1.97643   1.98045   2.00121
  Beta virt. eigenvalues --    2.02571   2.05954   2.10848   2.16071   2.27949
  Beta virt. eigenvalues --    2.28269   2.29510   2.31743   2.32793   2.40367
  Beta virt. eigenvalues --    2.41423   2.47253   2.50168   2.56293   2.58208
  Beta virt. eigenvalues --    2.59320   2.66614   2.68379   2.70187   2.73328
  Beta virt. eigenvalues --    2.73907   2.77103   2.79370   2.80475   2.83226
  Beta virt. eigenvalues --    2.91195   2.92311   3.01462   3.09771   3.15887
  Beta virt. eigenvalues --    3.22415   3.28345   3.34227   3.42121   3.54719
  Beta virt. eigenvalues --    3.68760   3.74962   3.85937   4.10700   4.12706
  Beta virt. eigenvalues --    4.76407   9.95589   9.99415  23.50155  23.89788
  Beta virt. eigenvalues --   23.90300  24.07981  24.09570  24.23447  25.92521
  Beta virt. eigenvalues --   25.92601  26.19507  26.26505  26.73114  26.73359
  Beta virt. eigenvalues --  216.05406 216.09901
          Condensed to atoms (all electrons):
               1          2          3          4          5          6
     1  C   10.839374   0.774873   0.543600  -1.118198  -4.399454  -0.139790
     2  C    0.774873   7.629650   0.774866  -0.530760  -2.727199  -0.530774
     3  C    0.543600   0.774866  10.839363  -0.139788  -4.399443  -1.118193
     4  C   -1.118198  -0.530760  -0.139788  12.164144  -2.904417  -0.706263
     5  C   -4.399454  -2.727199  -4.399443  -2.904417  23.155609  -2.904392
     6  C   -0.139790  -0.530774  -1.118193  -0.706263  -2.904392  12.164129
     7  Cl  -0.148502   0.168860   0.086695  -0.110682   0.197369  -0.869714
     8  H    0.382537   0.070812   0.006521  -0.004144  -0.064385  -0.063190
     9  H    0.006522   0.070811   0.382532  -0.063188  -0.064382  -0.004145
    10  Cl   0.086696   0.168860  -0.148504  -0.869712   0.197368  -0.110681
    11  H   -0.058800  -0.015148  -0.058800  -0.086167   0.589489  -0.086168
               7          8          9         10         11
     1  C   -0.148502   0.382537   0.006522   0.086696  -0.058800
     2  C    0.168860   0.070812   0.070811   0.168860  -0.015148
     3  C    0.086695   0.006521   0.382532  -0.148504  -0.058800
     4  C   -0.110682  -0.004144  -0.063188  -0.869712  -0.086167
     5  C    0.197369  -0.064385  -0.064382   0.197368   0.589489
     6  C   -0.869714  -0.063190  -0.004145  -0.110681  -0.086168
     7  Cl  17.345535  -0.001444  -0.002721  -0.023263   0.012635
     8  H   -0.001444   0.467892  -0.000088  -0.002721  -0.001388
     9  H   -0.002721  -0.000088   0.467890  -0.001444  -0.001388
    10  Cl  -0.023263  -0.002721  -0.001444  17.345535   0.012635
    11  H    0.012635  -0.001388  -0.001388   0.012635   0.472399
          Atomic-Atomic Spin Densities.
               1          2          3          4          5          6
     1  C    0.672870  -0.581694   0.564599  -0.099071  -0.295617  -0.254822
     2  C   -0.581694   1.430021  -0.581696   0.075588   0.375211   0.075586
     3  C    0.564599  -0.581696   0.672870  -0.254822  -0.295618  -0.099070
     4  C   -0.099071   0.075588  -0.254822   0.176881   0.116029   0.026363
     5  C   -0.295617   0.375211  -0.295618   0.116029   0.059115   0.116028
     6  C   -0.254822   0.075586  -0.099070   0.026363   0.116028   0.176883
     7  Cl   0.073221  -0.036102   0.025407   0.000308  -0.051801  -0.022588
     8  H   -0.001504   0.012862  -0.010953  -0.003507   0.000824  -0.008049
     9  H   -0.010953   0.012861  -0.001504  -0.008049   0.000824  -0.003507
    10  Cl   0.025406  -0.036101   0.073220  -0.022587  -0.051800   0.000308
    11  H    0.005086  -0.009592   0.005086   0.002380  -0.005775   0.002380
               7          8          9         10         11
     1  C    0.073221  -0.001504  -0.010953   0.025406   0.005086
     2  C   -0.036102   0.012862   0.012861  -0.036101  -0.009592
     3  C    0.025407  -0.010953  -0.001504   0.073220   0.005086
     4  C    0.000308  -0.003507  -0.008049  -0.022587   0.002380
     5  C   -0.051801   0.000824   0.000824  -0.051800  -0.005775
     6  C   -0.022588  -0.008049  -0.003507   0.000308   0.002380
     7  Cl   0.025648  -0.001119  -0.000403   0.001631   0.000825
     8  H   -0.001119   0.036546   0.000550  -0.000403  -0.000769
     9  H   -0.000403   0.000550   0.036546  -0.001118  -0.000769
    10  Cl   0.001631  -0.000403  -0.001118   0.025647   0.000825
    11  H    0.000825  -0.000769  -0.000769   0.000825   0.002880
 Mulliken charges and spin densities:
               1          2
     1  C   -0.768856   0.097520
     2  C    0.145150   0.736944
     3  C   -0.768850   0.097520
     4  C    0.369176   0.009513
     5  C   -0.676164  -0.032578
     6  C    0.369180   0.009513
     7  Cl   0.345231   0.015028
     8  H    0.209598   0.024477
     9  H    0.209601   0.024478
    10  Cl   0.345232   0.015028
    11  H    0.220701   0.002557
 Sum of Mulliken charges =  -0.00000   1.00000
 Mulliken charges and spin densities with hydrogens summed into heavy atoms:
               1          2
     1  C   -0.559257   0.121997
     2  C    0.145150   0.736944
     3  C   -0.559249   0.121998
     4  C    0.369176   0.009513
     5  C   -0.455463  -0.030021
     6  C    0.369180   0.009513
     7  Cl   0.345231   0.015028
    10  Cl   0.345232   0.015028
 Electronic spatial extent (au):  <R**2>=           1478.9765
 Charge=             -0.0000 electrons
 Dipole moment (field-independent basis, Debye):
    X=             -0.6488    Y=              0.0000    Z=              0.0000  Tot=              0.6488
 Quadrupole moment (field-independent basis, Debye-Ang):
   XX=            -57.1385   YY=            -59.3878   ZZ=            -62.7644
   XY=             -0.0000   XZ=              0.0000   YZ=             -0.0000
 Traceless Quadrupole moment (field-independent basis, Debye-Ang):
   XX=              2.6251   YY=              0.3757   ZZ=             -3.0008
   XY=             -0.0000   XZ=              0.0000   YZ=             -0.0000
 Octapole moment (field-independent basis, Debye-Ang**2):
  XXX=             13.6991  YYY=              0.0000  ZZZ=              0.0000  XYY=             -5.0846
  XXY=              0.0000  XXZ=             -0.0000  XZZ=              5.9174  YZZ=             -0.0000
  YYZ=              0.0000  XYZ=              0.0000
 Hexadecapole moment (field-independent basis, Debye-Ang**3):
 XXXX=           -502.4417 YYYY=          -1348.8310 ZZZZ=            -73.1896 XXXY=              0.0000
 XXXZ=              0.0000 YYYX=             -0.0001 YYYZ=             -0.0000 ZZZX=             -0.0000
 ZZZY=             -0.0000 XXYY=           -283.6427 XXZZ=           -102.9075 YYZZ=           -251.5347
 XXYZ=             -0.0000 YYXZ=              0.0000 ZZXY=              0.0001
 N-N= 4.422310868155D+02 E-N=-3.606294853836D+03  KE= 1.147820816764D+03
 Symmetry A'   KE= 1.049527802256D+03
 Symmetry A"   KE= 9.829301450760D+01
 Symmetry A'   SP= 9.999999999999D-01
 Symmetry A"   SP= 1.484716704100D-14
                          Isotropic Fermi Contact Couplings
        Atom                 a.u.       MegaHertz       Gauss      10(-4) cm-1
     1  C(13)              0.00934      10.50551       3.74863       3.50426
     2  C(13)              0.42163     473.99103     169.13178     158.10639
     3  C(13)              0.00934      10.50478       3.74837       3.50402
     4  C(13)              0.07288      81.92869      29.23419      27.32847
     5  C(13)             -0.00883      -9.92545      -3.54165      -3.31077
     6  C(13)              0.07288      81.92869      29.23419      27.32847
     7  Cl(35)             0.00362       1.58866       0.56687       0.52992
     8  H(1)               0.01235      55.19154      19.69371      18.40992
     9  H(1)               0.01235      55.19224      19.69396      18.41015
    10  Cl(35)             0.00362       1.58863       0.56686       0.52991
    11  H(1)               0.00054       2.41377       0.86129       0.80515
 --------------------------------------------------------
       Center         ----  Spin Dipole Couplings  ----
                      3XX-RR        3YY-RR        3ZZ-RR
 --------------------------------------------------------
     1   Atom        0.032639      0.064850     -0.097490
     2   Atom        0.973555     -0.572385     -0.401169
     3   Atom        0.032639      0.064851     -0.097490
     4   Atom        0.037060     -0.034669     -0.002391
     5   Atom        0.033729      0.019244     -0.052974
     6   Atom        0.037060     -0.034669     -0.002391
     7   Atom        0.036144     -0.009407     -0.026738
     8   Atom       -0.009199      0.020966     -0.011767
     9   Atom       -0.009199      0.020966     -0.011767
    10   Atom        0.036144     -0.009406     -0.026738
    11   Atom        0.001314      0.001206     -0.002520
 --------------------------------------------------------
                        XY            XZ            YZ
 --------------------------------------------------------
     1   Atom       -0.050792     -0.000000      0.000000
     2   Atom        0.000000      0.000000     -0.000000
     3   Atom        0.050792      0.000000      0.000000
     4   Atom       -0.006353      0.000000     -0.000000
     5   Atom        0.000000     -0.000000      0.000000
     6   Atom        0.006353     -0.000000     -0.000000
     7   Atom       -0.070853      0.000000     -0.000000
     8   Atom       -0.006058     -0.000000     -0.000000
     9   Atom        0.006058      0.000000     -0.000000
    10   Atom        0.070853     -0.000000     -0.000000
    11   Atom        0.000000      0.000000      0.000000
 --------------------------------------------------------


 ---------------------------------------------------------------------------------
              Anisotropic Spin Dipole Couplings in Principal Axis System
 ---------------------------------------------------------------------------------

       Atom             a.u.   MegaHertz   Gauss  10(-4) cm-1        Axes

              Baa    -0.0975   -13.082    -4.668    -4.364  0.0000  0.0000  1.0000
     1 C(13)  Bbb    -0.0045    -0.609    -0.217    -0.203  0.8069  0.5907 -0.0000
              Bcc     0.1020    13.691     4.885     4.567 -0.5907  0.8069 -0.0000
 
              Baa    -0.5724   -76.809   -27.407   -25.621 -0.0000  1.0000  0.0000
     2 C(13)  Bbb    -0.4012   -53.833   -19.209   -17.957  0.0000  0.0000  1.0000
              Bcc     0.9736   130.642    46.616    43.577  1.0000  0.0000  0.0000
 
              Baa    -0.0975   -13.082    -4.668    -4.364  0.0000  0.0000  1.0000
     3 C(13)  Bbb    -0.0045    -0.609    -0.217    -0.203  0.8069 -0.5907  0.0000
              Bcc     0.1020    13.691     4.885     4.567  0.5907  0.8069 -0.0000
 
              Baa    -0.0352    -4.727    -1.687    -1.577  0.0876  0.9962 -0.0000
     4 C(13)  Bbb    -0.0024    -0.321    -0.114    -0.107  0.0000  0.0000  1.0000
              Bcc     0.0376     5.048     1.801     1.684  0.9962 -0.0876  0.0000
 
              Baa    -0.0530    -7.109    -2.537    -2.371  0.0000  0.0000  1.0000
     5 C(13)  Bbb     0.0192     2.582     0.921     0.861 -0.0000  1.0000  0.0000
              Bcc     0.0337     4.526     1.615     1.510  1.0000  0.0000  0.0000
 
              Baa    -0.0352    -4.727    -1.687    -1.577 -0.0876  0.9962 -0.0000
     6 C(13)  Bbb    -0.0024    -0.321    -0.114    -0.107  0.0000  0.0000  1.0000
              Bcc     0.0376     5.048     1.801     1.684  0.9962  0.0876 -0.0000
 
              Baa    -0.0611    -3.195    -1.140    -1.066  0.5891  0.8081  0.0000
     7 Cl(35) Bbb    -0.0267    -1.399    -0.499    -0.467  0.0000  0.0000  1.0000
              Bcc     0.0878     4.595     1.640     1.533  0.8081 -0.5891  0.0000
 
              Baa    -0.0118    -6.279    -2.240    -2.094  0.0000  0.0000  1.0000
     8 H(1)   Bbb    -0.0104    -5.533    -1.974    -1.846  0.9818  0.1898 -0.0000
              Bcc     0.0221    11.812     4.215     3.940 -0.1898  0.9818 -0.0000
 
              Baa    -0.0118    -6.278    -2.240    -2.094  0.0000  0.0000  1.0000
     9 H(1)   Bbb    -0.0104    -5.533    -1.974    -1.846  0.9818 -0.1898  0.0000
              Bcc     0.0221    11.811     4.215     3.940  0.1898  0.9818 -0.0000
 
              Baa    -0.0611    -3.195    -1.140    -1.066 -0.5891  0.8081  0.0000
    10 Cl(35) Bbb    -0.0267    -1.399    -0.499    -0.467  0.0000  0.0000  1.0000
              Bcc     0.0878     4.595     1.640     1.533  0.8081  0.5891 -0.0000
 
              Baa    -0.0025    -1.344    -0.480    -0.448  0.0000  0.0000  1.0000
    11 H(1)   Bbb     0.0012     0.643     0.230     0.215 -0.0000  1.0000 -0.0000
              Bcc     0.0013     0.701     0.250     0.234  1.0000  0.0000 -0.0000
 

 ---------------------------------------------------------------------------------

 Calling FoFJK, ICntrl=      2127 FMM=F ISym2X=1 I1Cent= 0 IOpClX= 1 NMat=1 NMatS=1 NMatT=0.
 ***** Axes restored to original set *****
 -------------------------------------------------------------------
 Center     Atomic                   Forces (Hartrees/Bohr)
 Number     Number              X              Y              Z
 -------------------------------------------------------------------
      1        6           0.000098255   -0.010396143   -0.000000000
      2        6          -0.000244223    0.008905220    0.000000000
      3        6           0.000478167   -0.010382118    0.000000000
      4        6          -0.029786626    0.018938401   -0.000000000
      5        6           0.000075563   -0.002756101   -0.000000000
      6        6           0.028702399    0.020544888    0.000000000
      7       17          -0.019053092   -0.012762341   -0.000000000
      8        1           0.007798605   -0.006474090    0.000000000
      9        1          -0.007437577   -0.006896505   -0.000000000
     10       17           0.019724951   -0.011697062    0.000000000
     11        1          -0.000356422    0.012975851    0.000000000
 -------------------------------------------------------------------
 Cartesian Forces:  Max     0.029786626 RMS     0.011309423

 GradGradGradGradGradGradGradGradGradGradGradGradGradGradGradGradGradGrad
 Berny optimization.
 FormGI is forming the generalized inverse of G from B-inverse, IUseBI=4.
 Internal  Forces:  Max     0.022922324 RMS     0.007016590
 Search for a local minimum.
 Step number   1 out of a maximum of   57
 All quantities printed in internal units (Hartrees-Bohrs-Radians)
 Mixed Optimization -- RFO/linear search
 Second derivative matrix not updated -- first step.
 ITU=  0
     Eigenvalues ---    0.01942   0.01948   0.01972   0.01993   0.01999
     Eigenvalues ---    0.02080   0.02129   0.02400   0.16000   0.16000
     Eigenvalues ---    0.16000   0.23274   0.23491   0.23503   0.25000
     Eigenvalues ---    0.25000   0.33526   0.34032   0.34033   0.36825
     Eigenvalues ---    0.36825   0.40502   0.42164   0.43371   0.44331
     Eigenvalues ---    0.49179   0.50555
 RFO step:  Lambda=-6.26196802D-03 EMin= 1.94225031D-02
 Linear search not attempted -- first point.
 Iteration  1 RMS(Cart)=  0.02132738 RMS(Int)=  0.00017563
 Iteration  2 RMS(Cart)=  0.00027501 RMS(Int)=  0.00003086
 Iteration  3 RMS(Cart)=  0.00000005 RMS(Int)=  0.00003086
 ClnCor:  largest displacement from symmetrization is 6.82D-11 for atom     7.
 Variable       Old X    -DE/DX   Delta X   Delta X   Delta X     New X
                                 (Linear)    (Quad)   (Total)
    R1        2.58912  -0.00248   0.00000  -0.00419  -0.00414   2.58498
    R2        2.67216  -0.01266   0.00000  -0.02879  -0.02879   2.64336
    R3        2.07275  -0.01000   0.00000  -0.02884  -0.02884   2.04391
    R4        2.58912  -0.00248   0.00000  -0.00419  -0.00414   2.58498
    R5        2.67216  -0.01266   0.00000  -0.02879  -0.02879   2.64336
    R6        2.07277  -0.01000   0.00000  -0.02886  -0.02886   2.04391
    R7        2.65846  -0.01336   0.00000  -0.03028  -0.03032   2.62814
    R8        3.19811   0.02292   0.00000   0.06121   0.06121   3.25932
    R9        2.65846  -0.01336   0.00000  -0.03028  -0.03032   2.62814
   R10        2.08137  -0.01298   0.00000  -0.03801  -0.03801   2.04337
   R11        3.19811   0.02292   0.00000   0.06121   0.06121   3.25932
    A1        1.99450   0.00418   0.00000   0.01907   0.01911   2.01361
    A2        2.15026  -0.00035   0.00000   0.00095   0.00093   2.15119
    A3        2.13843  -0.00383   0.00000  -0.02002  -0.02004   2.11839
    A4        2.26622  -0.01121   0.00000  -0.04143  -0.04132   2.22490
    A5        1.99450   0.00418   0.00000   0.01907   0.01911   2.01361
    A6        2.15026  -0.00035   0.00000   0.00094   0.00093   2.15119
    A7        2.13843  -0.00383   0.00000  -0.02002  -0.02004   2.11839
    A8        2.10432   0.00174   0.00000   0.00485   0.00480   2.10911
    A9        2.08980   0.00022   0.00000   0.00183   0.00186   2.09166
   A10        2.08906  -0.00196   0.00000  -0.00668  -0.00665   2.08241
   A11        2.10252  -0.00064   0.00000  -0.00641  -0.00650   2.09603
   A12        2.09033   0.00032   0.00000   0.00320   0.00325   2.09358
   A13        2.09033   0.00032   0.00000   0.00320   0.00325   2.09358
   A14        2.10432   0.00174   0.00000   0.00485   0.00480   2.10911
   A15        2.08980   0.00022   0.00000   0.00183   0.00186   2.09166
   A16        2.08906  -0.00196   0.00000  -0.00668  -0.00665   2.08241
    D1        0.00000   0.00000   0.00000   0.00000   0.00000   0.00000
    D2        3.14159  -0.00000   0.00000  -0.00000   0.00000   3.14159
    D3       -0.00000   0.00000   0.00000  -0.00000   0.00000   0.00000
    D4        3.14159  -0.00000   0.00000  -0.00000   0.00000   3.14159
    D5        3.14159  -0.00000   0.00000   0.00000   0.00000   3.14159
    D6       -0.00000  -0.00000   0.00000   0.00000   0.00000   0.00000
    D7       -0.00000   0.00000   0.00000  -0.00000   0.00000   0.00000
    D8        3.14159   0.00000   0.00000   0.00000   0.00000   3.14159
    D9        0.00000  -0.00000   0.00000   0.00000   0.00000   0.00000
   D10        3.14159  -0.00000   0.00000   0.00000   0.00000   3.14159
   D11        3.14159  -0.00000   0.00000  -0.00000   0.00000   3.14159
   D12        0.00000  -0.00000   0.00000  -0.00000  -0.00000   0.00000
   D13       -0.00000  -0.00000   0.00000  -0.00000   0.00000   0.00000
   D14        3.14159   0.00000   0.00000  -0.00000   0.00000   3.14159
   D15        3.14159  -0.00000   0.00000  -0.00000   0.00000   3.14159
   D16        0.00000   0.00000   0.00000  -0.00000   0.00000   0.00000
   D17       -0.00000   0.00000   0.00000   0.00000   0.00000   0.00000
   D18        3.14159   0.00000   0.00000   0.00000   0.00000   3.14159
   D19        3.14159   0.00000   0.00000   0.00000   0.00000   3.14159
   D20        0.00000   0.00000   0.00000   0.00000  -0.00000   0.00000
         Item               Value     Threshold  Converged?
 Maximum Force            0.022922     0.000450     NO 
 RMS     Force            0.007017     0.000300     NO 
 Maximum Displacement     0.066700     0.001800     NO 
 RMS     Displacement     0.021346     0.001200     NO 
 Predicted change in Energy=-3.185699D-03
 GradGradGradGradGradGradGradGradGradGradGradGradGradGradGradGradGradGrad

                          Input orientation:                          
 ---------------------------------------------------------------------
 Center     Atomic      Atomic             Coordinates (Angstroms)
 Number     Number       Type             X           Y           Z
 ---------------------------------------------------------------------
      1          6           0       -3.218499    0.200838   -0.000000
      2          6           0       -2.008862    0.839553    0.000000
      3          6           0       -0.765983    0.268212    0.000000
      4          6           0       -0.749295   -1.130497    0.000000
      5          6           0       -1.934764   -1.857719    0.000000
      6          6           0       -3.158371   -1.196677   -0.000000
      7         17           0       -4.616132   -2.118481   -0.000000
      8          1           0       -4.165291    0.723735   -0.000000
      9          1           0        0.150673    0.842299    0.000000
     10         17           0        0.756875   -1.970878    0.000000
     11          1           0       -1.905071   -2.938614    0.000000
 ---------------------------------------------------------------------
                    Distance matrix (angstroms):
                    1          2          3          4          5
     1  C    0.000000
     2  C    1.367910   0.000000
     3  C    2.453441   1.367910   0.000000
     4  C    2.805250   2.338292   1.398808   0.000000
     5  C    2.426032   2.698290   2.426032   1.390752   0.000000
     6  C    1.398808   2.338291   2.805249   2.409986   1.390752
     7  Cl   2.707881   3.943072   4.529894   3.991058   2.694017
     8  H    1.081590   2.159537   3.429693   3.886799   3.411620
     9  H    3.429693   2.159537   1.081589   2.168379   3.411620
    10  Cl   4.529895   3.943073   2.707881   1.724757   2.694017
    11  H    3.403124   3.779592   3.403124   2.145951   1.081303
                    6          7          8          9         10
     6  C    0.000000
     7  Cl   1.724757   0.000000
     8  H    2.168380   2.877750   0.000000
     9  H    3.886798   5.611475   4.317593   0.000000
    10  Cl   3.991058   5.375034   5.611475   2.877750   0.000000
    11  H    2.145951   2.832396   4.303649   4.303648   2.832397
                   11
    11  H    0.000000
 Stoichiometry    C6H3Cl2(2)
 Framework group  CS[SG(C6H3Cl2)]
 Deg. of freedom    19
 Full point group                 CS      NOp   2
 Largest Abelian subgroup         CS      NOp   2
 Largest concise Abelian subgroup C1      NOp   1
                         Standard orientation:                         
 ---------------------------------------------------------------------
 Center     Atomic      Atomic             Coordinates (Angstroms)
 Number     Number       Type             X           Y           Z
 ---------------------------------------------------------------------
      1          6           0       -1.442595   -1.226721    0.000000
      2          6           0       -2.047852   -0.000000    0.000000
      3          6           0       -1.442595    1.226720    0.000000
      4          6           0       -0.043956    1.204993    0.000000
      5          6           0        0.650438    0.000000   -0.000000
      6          6           0       -0.043956   -1.204993    0.000000
      7         17           0        0.837469   -2.687517   -0.000000
      8          1           0       -1.991294   -2.158797    0.000000
      9          1           0       -1.991294    2.158796    0.000000
     10         17           0        0.837469    2.687517   -0.000000
     11          1           0        1.731741    0.000000   -0.000000
 ---------------------------------------------------------------------
 Rotational constants (GHZ):           3.0562909           0.8631572           0.6730691
 Standard basis: 6-311++G(d,p) (5D, 7F)
 There are   166 symmetry adapted cartesian basis functions of A'  symmetry.
 There are    55 symmetry adapted cartesian basis functions of A"  symmetry.
 There are   158 symmetry adapted basis functions of A'  symmetry.
 There are    55 symmetry adapted basis functions of A"  symmetry.
   213 basis functions,   349 primitive gaussians,   221 cartesian basis functions
    37 alpha electrons       36 beta electrons
       nuclear repulsion energy       441.9016117851 Hartrees.
 NAtoms=   11 NActive=   11 NUniq=   11 SFac= 1.00D+00 NAtFMM=   60 NAOKFM=F Big=F
 Integral buffers will be    131072 words long.
 Raffenetti 2 integral format.
 Two-electron integral symmetry is turned on.
 One-electron integrals computed using PRISM.
 NBasis=   213 RedAO= T EigKep=  1.61D-06  NBF=   158    55
 NBsUse=   213 1.00D-06 EigRej= -1.00D+00 NBFU=   158    55
 Initial guess from the checkpoint file:  "frequency_chks/1_5ClBzNeutralRadical_Freq.chk"
 B after Tr=     0.000000    0.000000   -0.000000
         Rot=    1.000000    0.000000    0.000000   -0.000000 Ang=  -0.00 deg.
 Initial guess orbital symmetries:
 Alpha Orbitals:
       Occupied  (A') (A') (A') (A') (A') (A') (A') (A') (A') (A')
                 (A') (A') (A") (A") (A') (A') (A') (A') (A') (A')
                 (A') (A') (A') (A') (A') (A') (A') (A") (A') (A')
                 (A") (A') (A") (A') (A") (A') (A")
       Virtual   (A") (A") (A') (A') (A') (A') (A') (A") (A') (A')
                 (A') (A") (A") (A') (A') (A') (A") (A") (A') (A')
                 (A') (A") (A') (A") (A') (A') (A') (A') (A") (A")
                 (A') (A') (A') (A') (A') (A') (A') (A') (A') (A')
                 (A') (A') (A') (A') (A') (A') (A') (A') (A') (A")
                 (A") (A') (A') (A') (A') (A") (A') (A') (A") (A')
                 (A") (A") (A") (A') (A') (A') (A') (A") (A') (A')
                 (A') (A') (A") (A') (A') (A') (A') (A") (A') (A")
                 (A') (A") (A') (A') (A') (A') (A') (A') (A") (A')
                 (A") (A") (A') (A") (A') (A') (A') (A') (A") (A")
                 (A') (A') (A') (A') (A') (A") (A") (A") (A') (A')
                 (A') (A') (A") (A') (A') (A") (A") (A') (A") (A')
                 (A') (A') (A") (A') (A') (A") (A") (A") (A') (A')
                 (A') (A') (A') (A') (A') (A') (A") (A') (A') (A')
                 (A') (A') (A") (A") (A") (A") (A') (A") (A') (A')
                 (A') (A') (A') (A') (A') (A') (A') (A') (A') (A')
                 (A') (A') (A') (A') (A') (A') (A') (A') (A") (A")
                 (A') (A') (A') (A') (A') (A')
 Beta  Orbitals:
       Occupied  (A') (A') (A') (A') (A') (A') (A') (A') (A') (A')
                 (A') (A') (A") (A") (A') (A') (A') (A') (A') (A')
                 (A') (A') (A') (A') (A') (A') (A') (A") (A') (A')
                 (A") (A') (A") (A') (A") (A")
       Virtual   (A') (A") (A') (A") (A') (A') (A') (A') (A") (A')
                 (A") (A') (A") (A') (A') (A') (A') (A") (A") (A')
                 (A') (A') (A') (A") (A") (A') (A') (A') (A') (A")
                 (A') (A") (A') (A') (A') (A') (A') (A') (A') (A')
                 (A') (A') (A') (A') (A') (A') (A') (A') (A') (A')
                 (A") (A") (A') (A') (A') (A') (A") (A') (A') (A')
                 (A") (A") (A") (A') (A") (A') (A') (A") (A') (A')
                 (A') (A') (A') (A") (A') (A') (A') (A') (A") (A')
                 (A") (A') (A") (A') (A') (A') (A') (A') (A') (A")
                 (A') (A") (A") (A') (A") (A') (A') (A') (A') (A")
                 (A") (A') (A') (A') (A') (A') (A") (A") (A") (A')
                 (A') (A') (A') (A") (A') (A') (A") (A") (A') (A")
                 (A') (A') (A') (A") (A') (A') (A") (A") (A") (A')
                 (A') (A') (A') (A') (A') (A') (A') (A") (A') (A')
                 (A') (A') (A') (A") (A") (A") (A") (A') (A") (A')
                 (A') (A') (A') (A') (A') (A') (A') (A') (A') (A')
                 (A') (A') (A') (A') (A') (A') (A') (A') (A') (A")
                 (A") (A') (A') (A') (A') (A') (A')
 Initial guess <Sx>= 0.0000 <Sy>= 0.0000 <Sz>= 0.5000 <S**2>= 0.7625 S= 0.5062
 ExpMin= 3.60D-02 ExpMax= 1.06D+05 ExpMxC= 3.62D+03 IAcc=3 IRadAn=         5 AccDes= 0.00D+00
 Harris functional with IExCor= 1009 and IRadAn=       5 diagonalized for initial guess.
 HarFok:  IExCor= 1009 AccDes= 0.00D+00 IRadAn=         5 IDoV= 1 UseB2=F ITyADJ=14
 ICtDFT=  3500011 ScaDFX=  1.000000  1.000000  1.000000  1.000000
 FoFCou: FMM=F IPFlag=           0 FMFlag=      100000 FMFlg1=           0
         NFxFlg=           0 DoJE=T BraDBF=F KetDBF=T FulRan=T
         wScrn=  0.000000 ICntrl=       500 IOpCl=  0 I1Cent=   200000004 NGrid=           0
         NMat0=    1 NMatS0=      1 NMatT0=    0 NMatD0=    1 NMtDS0=    0 NMtDT0=    0
 Petite list used in FoFCou.
 Keep R1 and R2 ints in memory in symmetry-blocked form, NReq=411615841.
 Requested convergence on RMS density matrix=1.00D-08 within 128 cycles.
 Requested convergence on MAX density matrix=1.00D-06.
 Requested convergence on             energy=1.00D-06.
 No special actions if energy rises.
 SCF Done:  E(UM062X) =  -1150.71247584     A.U. after   17 cycles
            NFock= 17  Conv=0.65D-08     -V/T= 2.0024
 <Sx>= 0.0000 <Sy>= 0.0000 <Sz>= 0.5000 <S**2>= 0.7622 S= 0.5061
 <L.S>=  0.00000000000    
 Annihilation of the first spin contaminant:
 S**2 before annihilation     0.7622,   after     0.7501
 Calling FoFJK, ICntrl=      2127 FMM=F ISym2X=1 I1Cent= 0 IOpClX= 1 NMat=1 NMatS=1 NMatT=0.
 ***** Axes restored to original set *****
 -------------------------------------------------------------------
 Center     Atomic                   Forces (Hartrees/Bohr)
 Number     Number              X              Y              Z
 -------------------------------------------------------------------
      1        6          -0.001911974   -0.003862191    0.000000000
      2        6          -0.000107576    0.003908830    0.000000000
      3        6           0.002121277   -0.003751443   -0.000000000
      4        6          -0.008304049    0.007239148    0.000000000
      5        6           0.000128148   -0.004666582    0.000000000
      6        6           0.007894057    0.007684170   -0.000000000
      7       17          -0.005300350   -0.003230811    0.000000000
      8        1          -0.000736762   -0.000024660    0.000000000
      9        1           0.000737175    0.000015945   -0.000000000
     10       17           0.005469688   -0.002934910   -0.000000000
     11        1           0.000010366   -0.000377496    0.000000000
 -------------------------------------------------------------------
 Cartesian Forces:  Max     0.008304049 RMS     0.003460807

 GradGradGradGradGradGradGradGradGradGradGradGradGradGradGradGradGradGrad
 Berny optimization.
 Using GEDIIS/GDIIS optimizer.
 FormGI is forming the generalized inverse of G from B-inverse, IUseBI=4.
 Internal  Forces:  Max     0.006206562 RMS     0.001688593
 Search for a local minimum.
 Step number   2 out of a maximum of   57
 All quantities printed in internal units (Hartrees-Bohrs-Radians)
 Mixed Optimization -- RFO/linear search
 Update second derivatives using D2CorX and points    1    2
 DE= -3.63D-03 DEPred=-3.19D-03 R= 1.14D+00
 TightC=F SS=  1.41D+00  RLast= 1.33D-01 DXNew= 5.0454D-01 3.9777D-01
 Trust test= 1.14D+00 RLast= 1.33D-01 DXMaxT set to 3.98D-01
 ITU=  1  0
 Use linear search instead of GDIIS.
     Eigenvalues ---    0.01942   0.01948   0.01972   0.01992   0.01999
     Eigenvalues ---    0.02085   0.02133   0.02393   0.15896   0.16000
     Eigenvalues ---    0.16000   0.20784   0.23505   0.23910   0.25000
     Eigenvalues ---    0.25049   0.31495   0.33708   0.34032   0.35642
     Eigenvalues ---    0.36825   0.40422   0.42503   0.43157   0.44328
     Eigenvalues ---    0.50515   0.51407
 RFO step:  Lambda=-3.49700382D-04 EMin= 1.94207384D-02
 Quartic linear search produced a step of  0.19256.
 Iteration  1 RMS(Cart)=  0.00618083 RMS(Int)=  0.00002929
 Iteration  2 RMS(Cart)=  0.00004195 RMS(Int)=  0.00000441
 Iteration  3 RMS(Cart)=  0.00000000 RMS(Int)=  0.00000441
 ClnCor:  largest displacement from symmetrization is 6.74D-10 for atom    11.
 Variable       Old X    -DE/DX   Delta X   Delta X   Delta X     New X
                                 (Linear)    (Quad)   (Total)
    R1        2.58498   0.00234  -0.00080   0.00617   0.00538   2.59035
    R2        2.64336  -0.00184  -0.00554  -0.00107  -0.00661   2.63675
    R3        2.04391   0.00063  -0.00555   0.00622   0.00067   2.04458
    R4        2.58498   0.00234  -0.00080   0.00617   0.00538   2.59035
    R5        2.64336  -0.00184  -0.00554  -0.00107  -0.00661   2.63675
    R6        2.04391   0.00063  -0.00556   0.00623   0.00067   2.04458
    R7        2.62814  -0.00013  -0.00584   0.00371  -0.00213   2.62601
    R8        3.25932   0.00621   0.01179   0.01158   0.02337   3.28269
    R9        2.62814  -0.00013  -0.00584   0.00371  -0.00213   2.62601
   R10        2.04337   0.00038  -0.00732   0.00663  -0.00069   2.04267
   R11        3.25932   0.00621   0.01179   0.01158   0.02337   3.28269
    A1        2.01361   0.00029   0.00368  -0.00059   0.00310   2.01671
    A2        2.15119   0.00024   0.00018   0.00168   0.00186   2.15305
    A3        2.11839  -0.00053  -0.00386  -0.00110  -0.00496   2.11343
    A4        2.22490  -0.00260  -0.00796  -0.00564  -0.01358   2.21132
    A5        2.01361   0.00029   0.00368  -0.00059   0.00310   2.01671
    A6        2.15119   0.00024   0.00018   0.00168   0.00186   2.15305
    A7        2.11839  -0.00053  -0.00386  -0.00110  -0.00496   2.11343
    A8        2.10911   0.00245   0.00092   0.01095   0.01186   2.12098
    A9        2.09166  -0.00139   0.00036  -0.00686  -0.00650   2.08516
   A10        2.08241  -0.00106  -0.00128  -0.00409  -0.00536   2.07705
   A11        2.09603  -0.00289  -0.00125  -0.01508  -0.01635   2.07968
   A12        2.09358   0.00145   0.00063   0.00754   0.00817   2.10175
   A13        2.09358   0.00145   0.00063   0.00754   0.00817   2.10175
   A14        2.10911   0.00245   0.00092   0.01095   0.01186   2.12098
   A15        2.09166  -0.00139   0.00036  -0.00686  -0.00650   2.08516
   A16        2.08241  -0.00106  -0.00128  -0.00409  -0.00536   2.07705
    D1        0.00000  -0.00000   0.00000  -0.00000  -0.00000   0.00000
    D2        3.14159   0.00000   0.00000   0.00000   0.00000   3.14159
    D3        0.00000   0.00000   0.00000  -0.00000   0.00000   0.00000
    D4        3.14159   0.00000   0.00000  -0.00000   0.00000   3.14159
    D5        3.14159   0.00000   0.00000  -0.00000   0.00000   3.14159
    D6       -0.00000  -0.00000   0.00000  -0.00000   0.00000   0.00000
    D7       -0.00000  -0.00000   0.00000   0.00000   0.00000   0.00000
    D8        3.14159  -0.00000   0.00000  -0.00000   0.00000   3.14159
    D9        0.00000   0.00000   0.00000  -0.00000  -0.00000   0.00000
   D10        3.14159  -0.00000   0.00000  -0.00000   0.00000   3.14159
   D11        3.14159  -0.00000   0.00000  -0.00000   0.00000   3.14159
   D12       -0.00000  -0.00000   0.00000  -0.00000   0.00000   0.00000
   D13       -0.00000  -0.00000   0.00000   0.00000   0.00000   0.00000
   D14        3.14159   0.00000   0.00000   0.00000   0.00000   3.14159
   D15        3.14159   0.00000   0.00000   0.00000   0.00000   3.14159
   D16        0.00000  -0.00000   0.00000   0.00000  -0.00000   0.00000
   D17       -0.00000  -0.00000   0.00000  -0.00000   0.00000   0.00000
   D18        3.14159  -0.00000   0.00000  -0.00000   0.00000   3.14159
   D19        3.14159  -0.00000   0.00000  -0.00000   0.00000   3.14159
   D20        0.00000  -0.00000   0.00000  -0.00000  -0.00000   0.00000
         Item               Value     Threshold  Converged?
 Maximum Force            0.006207     0.000450     NO 
 RMS     Force            0.001689     0.000300     NO 
 Maximum Displacement     0.019331     0.001800     NO 
 RMS     Displacement     0.006184     0.001200     NO 
 Predicted change in Energy=-2.704726D-04
 GradGradGradGradGradGradGradGradGradGradGradGradGradGradGradGradGradGrad

                          Input orientation:                          
 ---------------------------------------------------------------------
 Center     Atomic      Atomic             Coordinates (Angstroms)
 Number     Number       Type             X           Y           Z
 ---------------------------------------------------------------------
      1          6           0       -3.216923    0.201524    0.000000
      2          6           0       -2.009143    0.849783    0.000000
      3          6           0       -0.767594    0.268811   -0.000000
      4          6           0       -0.756096   -1.126451   -0.000000
      5          6           0       -1.934626   -1.862741    0.000000
      6          6           0       -3.151802   -1.192264    0.000000
      7         17           0       -4.622616   -2.116548    0.000000
      8          1           0       -4.168514    0.716382    0.000000
      9          1           0        0.154295    0.835135   -0.000000
     10         17           0        0.763244   -1.968591   -0.000000
     11          1           0       -1.904943   -2.943269    0.000000
 ---------------------------------------------------------------------
                    Distance matrix (angstroms):
                    1          2          3          4          5
     1  C    0.000000
     2  C    1.370756   0.000000
     3  C    2.450253   1.370756   0.000000
     4  C    2.796281   2.340005   1.395309   0.000000
     5  C    2.430119   2.713547   2.430119   1.389624   0.000000
     6  C    1.395309   2.340005   2.796281   2.396609   1.389624
     7  Cl   2.710983   3.953398   4.533336   3.991274   2.699946
     8  H    1.081945   2.163488   3.430245   3.878225   3.412057
     9  H    3.430244   2.163488   1.081944   2.162553   3.412057
    10  Cl   4.533336   3.953398   2.710983   1.737122   2.699946
    11  H    3.407495   3.794483   3.407495   2.149576   1.080936
                    6          7          8          9         10
     6  C    0.000000
     7  Cl   1.737122   0.000000
     8  H    2.162553   2.869094   0.000000
     9  H    3.878225   5.615275   4.324440   0.000000
    10  Cl   3.991274   5.387892   5.615276   2.869094   0.000000
    11  H    2.149576   2.840637   4.303116   4.303116   2.840637
                   11
    11  H    0.000000
 Stoichiometry    C6H3Cl2(2)
 Framework group  CS[SG(C6H3Cl2)]
 Deg. of freedom    19
 Full point group                 CS      NOp   2
 Largest Abelian subgroup         CS      NOp   2
 Largest concise Abelian subgroup C1      NOp   1
                         Standard orientation:                         
 ---------------------------------------------------------------------
 Center     Atomic      Atomic             Coordinates (Angstroms)
 Number     Number       Type             X           Y           Z
 ---------------------------------------------------------------------
      1          6           0       -1.441289   -1.225127    0.000000
      2          6           0       -2.056135    0.000000    0.000000
      3          6           0       -1.441289    1.225127    0.000000
      4          6           0       -0.046237    1.198305    0.000000
      5          6           0        0.657412    0.000000    0.000000
      6          6           0       -0.046237   -1.198305    0.000000
      7         17           0        0.837308   -2.693946    0.000000
      8          1           0       -1.982084   -2.162220    0.000000
      9          1           0       -1.982084    2.162220    0.000000
     10         17           0        0.837308    2.693946    0.000000
     11          1           0        1.738348   -0.000000    0.000000
 ---------------------------------------------------------------------
 Rotational constants (GHZ):           3.0495828           0.8602628           0.6709837
 Standard basis: 6-311++G(d,p) (5D, 7F)
 There are   166 symmetry adapted cartesian basis functions of A'  symmetry.
 There are    55 symmetry adapted cartesian basis functions of A"  symmetry.
 There are   158 symmetry adapted basis functions of A'  symmetry.
 There are    55 symmetry adapted basis functions of A"  symmetry.
   213 basis functions,   349 primitive gaussians,   221 cartesian basis functions
    37 alpha electrons       36 beta electrons
       nuclear repulsion energy       441.2080187864 Hartrees.
 NAtoms=   11 NActive=   11 NUniq=   11 SFac= 1.00D+00 NAtFMM=   60 NAOKFM=F Big=F
 Integral buffers will be    131072 words long.
 Raffenetti 2 integral format.
 Two-electron integral symmetry is turned on.
 One-electron integrals computed using PRISM.
 NBasis=   213 RedAO= T EigKep=  1.62D-06  NBF=   158    55
 NBsUse=   213 1.00D-06 EigRej= -1.00D+00 NBFU=   158    55
 Initial guess from the checkpoint file:  "frequency_chks/1_5ClBzNeutralRadical_Freq.chk"
 B after Tr=     0.000000    0.000000    0.000000
         Rot=    1.000000   -0.000000    0.000000    0.000000 Ang=   0.00 deg.
 Initial guess orbital symmetries:
 Alpha Orbitals:
       Occupied  (A') (A') (A') (A') (A') (A') (A') (A') (A') (A')
                 (A') (A') (A") (A") (A') (A') (A') (A') (A') (A')
                 (A') (A') (A') (A') (A') (A') (A') (A") (A') (A')
                 (A") (A') (A") (A') (A") (A') (A")
       Virtual   (A") (A") (A') (A') (A') (A') (A') (A") (A') (A')
                 (A') (A") (A") (A') (A') (A') (A") (A") (A') (A')
                 (A') (A") (A') (A') (A") (A') (A') (A') (A") (A")
                 (A') (A') (A') (A') (A') (A') (A') (A') (A') (A')
                 (A') (A') (A') (A') (A') (A') (A') (A') (A') (A")
                 (A") (A') (A') (A') (A') (A") (A') (A') (A") (A')
                 (A") (A") (A") (A') (A') (A') (A') (A") (A') (A')
                 (A') (A') (A") (A') (A') (A') (A') (A") (A') (A")
                 (A') (A") (A') (A') (A') (A') (A') (A') (A") (A')
                 (A") (A") (A') (A") (A') (A') (A') (A') (A") (A")
                 (A') (A') (A') (A') (A') (A") (A") (A") (A') (A')
                 (A') (A') (A') (A") (A') (A") (A") (A') (A") (A')
                 (A') (A') (A") (A') (A') (A") (A") (A") (A') (A')
                 (A') (A') (A') (A') (A') (A') (A") (A') (A') (A')
                 (A') (A') (A") (A") (A") (A") (A') (A") (A') (A')
                 (A') (A') (A') (A') (A') (A') (A') (A') (A') (A')
                 (A') (A') (A') (A') (A') (A') (A') (A') (A") (A")
                 (A') (A') (A') (A') (A') (A')
 Beta  Orbitals:
       Occupied  (A') (A') (A') (A') (A') (A') (A') (A') (A') (A')
                 (A') (A') (A") (A") (A') (A') (A') (A') (A') (A')
                 (A') (A') (A') (A') (A') (A') (A') (A") (A') (A')
                 (A") (A') (A") (A') (A") (A")
       Virtual   (A') (A") (A') (A") (A') (A') (A') (A') (A") (A')
                 (A') (A") (A") (A') (A') (A') (A') (A") (A") (A')
                 (A') (A') (A") (A') (A") (A') (A') (A') (A') (A")
                 (A') (A") (A') (A') (A') (A') (A') (A') (A') (A')
                 (A') (A') (A') (A') (A') (A') (A') (A') (A') (A')
                 (A") (A") (A') (A') (A') (A') (A") (A') (A') (A')
                 (A") (A") (A") (A") (A') (A') (A') (A") (A') (A')
                 (A') (A') (A') (A") (A') (A') (A') (A') (A") (A')
                 (A") (A') (A") (A') (A') (A') (A') (A') (A') (A")
                 (A') (A") (A") (A') (A") (A') (A') (A') (A') (A")
                 (A") (A') (A') (A') (A') (A') (A") (A") (A") (A')
                 (A') (A') (A') (A") (A') (A') (A") (A') (A") (A")
                 (A') (A') (A') (A") (A') (A') (A") (A") (A") (A')
                 (A') (A') (A') (A') (A') (A') (A') (A") (A') (A')
                 (A') (A') (A') (A") (A") (A") (A") (A') (A") (A')
                 (A') (A') (A') (A') (A') (A') (A') (A') (A') (A')
                 (A') (A') (A') (A') (A') (A') (A') (A') (A') (A")
                 (A") (A') (A') (A') (A') (A') (A')
 Initial guess <Sx>= 0.0000 <Sy>= 0.0000 <Sz>= 0.5000 <S**2>= 0.7623 S= 0.5061
 Keep R1 and R2 ints in memory in symmetry-blocked form, NReq=411615841.
 Requested convergence on RMS density matrix=1.00D-08 within 128 cycles.
 Requested convergence on MAX density matrix=1.00D-06.
 Requested convergence on             energy=1.00D-06.
 No special actions if energy rises.
 SCF Done:  E(UM062X) =  -1150.71279661     A.U. after   14 cycles
            NFock= 14  Conv=0.55D-08     -V/T= 2.0024
 <Sx>= 0.0000 <Sy>= 0.0000 <Sz>= 0.5000 <S**2>= 0.7623 S= 0.5062
 <L.S>=  0.00000000000    
 Annihilation of the first spin contaminant:
 S**2 before annihilation     0.7623,   after     0.7501
 Calling FoFJK, ICntrl=      2127 FMM=F ISym2X=1 I1Cent= 0 IOpClX= 1 NMat=1 NMatS=1 NMatT=0.
 ***** Axes restored to original set *****
 -------------------------------------------------------------------
 Center     Atomic                   Forces (Hartrees/Bohr)
 Number     Number              X              Y              Z
 -------------------------------------------------------------------
      1        6          -0.000894414   -0.000261722   -0.000000000
      2        6           0.000000525   -0.000020824   -0.000000000
      3        6           0.000907204   -0.000212428   -0.000000000
      4        6          -0.001743349    0.001575819   -0.000000000
      5        6           0.000049006   -0.001783786   -0.000000000
      6        6           0.001654176    0.001669132   -0.000000000
      7       17          -0.001032383   -0.000535237   -0.000000000
      8        1          -0.000293238    0.000161254   -0.000000000
      9        1           0.000284229    0.000177282   -0.000000000
     10       17           0.001060223   -0.000477759   -0.000000000
     11        1           0.000008022   -0.000291731   -0.000000000
 -------------------------------------------------------------------
 Cartesian Forces:  Max     0.001783786 RMS     0.000758390

 GradGradGradGradGradGradGradGradGradGradGradGradGradGradGradGradGradGrad
 Berny optimization.
 Using GEDIIS/GDIIS optimizer.
 FormGI is forming the generalized inverse of G from B-inverse, IUseBI=4.
 Internal  Forces:  Max     0.001158917 RMS     0.000395837
 Search for a local minimum.
 Step number   3 out of a maximum of   57
 All quantities printed in internal units (Hartrees-Bohrs-Radians)
 Mixed Optimization -- En-DIIS/RFO-DIIS
 Update second derivatives using D2CorX and points    1    2    3
 DE= -3.21D-04 DEPred=-2.70D-04 R= 1.19D+00
 TightC=F SS=  1.41D+00  RLast= 4.83D-02 DXNew= 6.6897D-01 1.4487D-01
 Trust test= 1.19D+00 RLast= 4.83D-02 DXMaxT set to 3.98D-01
 ITU=  1  1  0
 Use linear search instead of GDIIS.
     Eigenvalues ---    0.01942   0.01948   0.01971   0.01991   0.01999
     Eigenvalues ---    0.02086   0.02135   0.02391   0.15735   0.16000
     Eigenvalues ---    0.16000   0.17600   0.23511   0.23929   0.25000
     Eigenvalues ---    0.25037   0.30918   0.33704   0.34032   0.35756
     Eigenvalues ---    0.36825   0.40388   0.42868   0.43730   0.44323
     Eigenvalues ---    0.50502   0.51364
 RFO step:  Lambda=-1.10034974D-05 EMin= 1.94218458D-02
 Quartic linear search produced a step of  0.23848.
 Iteration  1 RMS(Cart)=  0.00181376 RMS(Int)=  0.00000259
 Iteration  2 RMS(Cart)=  0.00000336 RMS(Int)=  0.00000115
 Iteration  3 RMS(Cart)=  0.00000000 RMS(Int)=  0.00000115
 ClnCor:  largest displacement from symmetrization is 2.48D-10 for atom    11.
 Variable       Old X    -DE/DX   Delta X   Delta X   Delta X     New X
                                 (Linear)    (Quad)   (Total)
    R1        2.59035   0.00047   0.00128  -0.00006   0.00122   2.59158
    R2        2.63675  -0.00007  -0.00158   0.00061  -0.00096   2.63579
    R3        2.04458   0.00033   0.00016   0.00054   0.00070   2.04528
    R4        2.59035   0.00047   0.00128  -0.00006   0.00122   2.59158
    R5        2.63675  -0.00007  -0.00158   0.00061  -0.00096   2.63579
    R6        2.04458   0.00033   0.00016   0.00054   0.00070   2.04528
    R7        2.62601   0.00053  -0.00051   0.00136   0.00085   2.62686
    R8        3.28269   0.00116   0.00557   0.00028   0.00586   3.28854
    R9        2.62601   0.00053  -0.00051   0.00136   0.00085   2.62686
   R10        2.04267   0.00029  -0.00017   0.00050   0.00034   2.04301
   R11        3.28269   0.00116   0.00557   0.00028   0.00586   3.28854
    A1        2.01671  -0.00033   0.00074  -0.00197  -0.00123   2.01548
    A2        2.15305   0.00016   0.00044   0.00049   0.00093   2.15398
    A3        2.11343   0.00017  -0.00118   0.00148   0.00029   2.11373
    A4        2.21132   0.00015  -0.00324   0.00275  -0.00049   2.21083
    A5        2.01671  -0.00033   0.00074  -0.00197  -0.00123   2.01548
    A6        2.15305   0.00016   0.00044   0.00049   0.00093   2.15398
    A7        2.11343   0.00017  -0.00118   0.00148   0.00029   2.11373
    A8        2.12098   0.00073   0.00283   0.00149   0.00432   2.12530
    A9        2.08516  -0.00052  -0.00155  -0.00132  -0.00287   2.08229
   A10        2.07705  -0.00021  -0.00128  -0.00016  -0.00144   2.07560
   A11        2.07968  -0.00094  -0.00390  -0.00179  -0.00569   2.07399
   A12        2.10175   0.00047   0.00195   0.00090   0.00284   2.10460
   A13        2.10175   0.00047   0.00195   0.00090   0.00284   2.10460
   A14        2.12098   0.00073   0.00283   0.00149   0.00432   2.12530
   A15        2.08516  -0.00052  -0.00155  -0.00132  -0.00287   2.08229
   A16        2.07705  -0.00021  -0.00128  -0.00016  -0.00144   2.07560
    D1        0.00000   0.00000   0.00000   0.00000   0.00000   0.00000
    D2        3.14159  -0.00000   0.00000  -0.00000   0.00000   3.14159
    D3        0.00000  -0.00000   0.00000  -0.00000   0.00000   0.00000
    D4        3.14159  -0.00000   0.00000   0.00000   0.00000   3.14159
    D5        3.14159  -0.00000   0.00000   0.00000   0.00000   3.14159
    D6        0.00000  -0.00000   0.00000   0.00000   0.00000   0.00000
    D7        0.00000  -0.00000   0.00000  -0.00000   0.00000   0.00000
    D8        3.14159  -0.00000   0.00000  -0.00000   0.00000   3.14159
    D9        0.00000  -0.00000   0.00000   0.00000   0.00000   0.00000
   D10        3.14159  -0.00000   0.00000   0.00000   0.00000   3.14159
   D11        3.14159  -0.00000   0.00000   0.00000   0.00000   3.14159
   D12        0.00000  -0.00000   0.00000   0.00000   0.00000   0.00000
   D13        0.00000   0.00000   0.00000  -0.00000   0.00000   0.00000
   D14        3.14159   0.00000   0.00000  -0.00000   0.00000   3.14159
   D15        3.14159   0.00000   0.00000  -0.00000   0.00000   3.14159
   D16        0.00000   0.00000   0.00000  -0.00000   0.00000   0.00000
   D17        0.00000  -0.00000   0.00000   0.00000   0.00000   0.00000
   D18        3.14159  -0.00000   0.00000  -0.00000   0.00000   3.14159
   D19        3.14159   0.00000   0.00000   0.00000   0.00000   3.14159
   D20        0.00000  -0.00000   0.00000  -0.00000   0.00000   0.00000
         Item               Value     Threshold  Converged?
 Maximum Force            0.001159     0.000450     NO 
 RMS     Force            0.000396     0.000300     NO 
 Maximum Displacement     0.005415     0.001800     NO 
 RMS     Displacement     0.001813     0.001200     NO 
 Predicted change in Energy=-1.731149D-05
 GradGradGradGradGradGradGradGradGradGradGradGradGradGradGradGradGradGrad

                          Input orientation:                          
 ---------------------------------------------------------------------
 Center     Atomic      Atomic             Coordinates (Angstroms)
 Number     Number       Type             X           Y           Z
 ---------------------------------------------------------------------
      1          6           0       -3.217362    0.201909    0.000000
      2          6           0       -2.009170    0.850769    0.000000
      3          6           0       -0.767177    0.269218    0.000000
      4          6           0       -0.757740   -1.125550    0.000000
      5          6           0       -1.934553   -1.865428    0.000000
      6          6           0       -3.150211   -1.191274    0.000000
      7         17           0       -4.624943   -2.115145    0.000000
      8          1           0       -4.169884    0.715820    0.000000
      9          1           0        0.155694    0.834649    0.000000
     10         17           0        0.765490   -1.967063    0.000000
     11          1           0       -1.904864   -2.946135    0.000000
 ---------------------------------------------------------------------
                    Distance matrix (angstroms):
                    1          2          3          4          5
     1  C    0.000000
     2  C    1.371403   0.000000
     3  C    2.451109   1.371403   0.000000
     4  C    2.794975   2.339212   1.394800   0.000000
     5  C    2.432998   2.717221   2.432998   1.390074   0.000000
     6  C    1.394800   2.339212   2.794975   2.393373   1.390074
[...]
      7       17          -0.000039957   -0.000017662   -0.000000000
      8        1          -0.000001981    0.000030254   -0.000000000
      9        1           0.000000341    0.000030334    0.000000000
     10       17           0.000040874   -0.000015449    0.000000000
     11        1           0.000000915   -0.000033303   -0.000000000
 -------------------------------------------------------------------
 Cartesian Forces:  Max     0.000297509 RMS     0.000100619
 FormGI is forming the generalized inverse of G from B-inverse, IUseBI=4.

 GradGradGradGradGradGradGradGradGradGradGradGradGradGradGradGradGradGrad
 Berny optimization.
 Internal  Forces:  Max     0.000201709 RMS     0.000056985
 Search for a local minimum.
 Step number   1 out of a maximum of    2
 All quantities printed in internal units (Hartrees-Bohrs-Radians)
 Second derivative matrix not updated -- analytic derivatives used.
 ITU=  0
     Eigenvalues ---    0.01683   0.01740   0.01956   0.02304   0.02699
     Eigenvalues ---    0.02714   0.03189   0.03492   0.10346   0.10834
     Eigenvalues ---    0.11356   0.15862   0.16257   0.18051   0.18138
     Eigenvalues ---    0.20222   0.26483   0.27042   0.28380   0.36676
     Eigenvalues ---    0.36786   0.37222   0.43032   0.43064   0.47468
     Eigenvalues ---    0.49299   0.52735
 Angle between quadratic step and forces=  13.82 degrees.
 Linear search not attempted -- first point.
 Iteration  1 RMS(Cart)=  0.00028257 RMS(Int)=  0.00000009
 Iteration  2 RMS(Cart)=  0.00000013 RMS(Int)=  0.00000003
 ClnCor:  largest displacement from symmetrization is 2.65D-11 for atom    11.
 Variable       Old X    -DE/DX   Delta X   Delta X   Delta X     New X
                                 (Linear)    (Quad)   (Total)
    R1        2.59158  -0.00003   0.00000  -0.00011  -0.00011   2.59147
    R2        2.63579   0.00009   0.00000   0.00021   0.00021   2.63600
    R3        2.04528   0.00002   0.00000  -0.00000  -0.00000   2.04527
    R4        2.59158  -0.00003   0.00000  -0.00011  -0.00011   2.59147
    R5        2.63579   0.00009   0.00000   0.00021   0.00021   2.63600
    R6        2.04528   0.00002   0.00000  -0.00000  -0.00000   2.04527
    R7        2.62686   0.00003   0.00000   0.00003   0.00003   2.62689
    R8        3.28854   0.00004   0.00000   0.00033   0.00033   3.28888
    R9        2.62686   0.00003   0.00000   0.00003   0.00003   2.62689
   R10        2.04301   0.00003   0.00000   0.00006   0.00006   2.04307
   R11        3.28854   0.00004   0.00000   0.00033   0.00033   3.28888
    A1        2.01548  -0.00014   0.00000  -0.00082  -0.00082   2.01466
    A2        2.15398   0.00004   0.00000   0.00020   0.00020   2.15418
    A3        2.11373   0.00010   0.00000   0.00062   0.00062   2.11434
    A4        2.21083   0.00020   0.00000   0.00108   0.00108   2.21191
    A5        2.01548  -0.00014   0.00000  -0.00082  -0.00082   2.01466
    A6        2.15398   0.00004   0.00000   0.00020   0.00020   2.15418
    A7        2.11373   0.00010   0.00000   0.00062   0.00062   2.11434
    A8        2.12530   0.00008   0.00000   0.00045   0.00045   2.12574
    A9        2.08229  -0.00005   0.00000  -0.00026  -0.00026   2.08203
   A10        2.07560  -0.00003   0.00000  -0.00019  -0.00019   2.07541
   A11        2.07399  -0.00007   0.00000  -0.00034  -0.00034   2.07365
   A12        2.10460   0.00003   0.00000   0.00017   0.00017   2.10477
   A13        2.10460   0.00003   0.00000   0.00017   0.00017   2.10477
   A14        2.12530   0.00008   0.00000   0.00045   0.00045   2.12574
   A15        2.08229  -0.00005   0.00000  -0.00026  -0.00026   2.08203
   A16        2.07560  -0.00003   0.00000  -0.00019  -0.00019   2.07541
    D1        0.00000  -0.00000   0.00000   0.00000  -0.00000   0.00000
    D2        3.14159  -0.00000   0.00000   0.00000   0.00000   3.14159
    D3        0.00000  -0.00000   0.00000  -0.00000   0.00000   0.00000
    D4        3.14159  -0.00000   0.00000  -0.00000   0.00000   3.14159
    D5        3.14159  -0.00000   0.00000  -0.00000   0.00000   3.14159
    D6       -0.00000  -0.00000   0.00000  -0.00000   0.00000   0.00000
    D7       -0.00000   0.00000   0.00000   0.00000   0.00000   0.00000
    D8        3.14159   0.00000   0.00000   0.00000   0.00000   3.14159
    D9        0.00000  -0.00000   0.00000  -0.00000  -0.00000   0.00000
   D10        3.14159  -0.00000   0.00000  -0.00000   0.00000   3.14159
   D11        3.14159  -0.00000   0.00000  -0.00000   0.00000   3.14159
   D12        0.00000  -0.00000   0.00000  -0.00000  -0.00000   0.00000
   D13       -0.00000  -0.00000   0.00000   0.00000   0.00000   0.00000
   D14        3.14159   0.00000   0.00000   0.00000   0.00000   3.14159
   D15        3.14159  -0.00000   0.00000   0.00000   0.00000   3.14159
   D16        0.00000   0.00000   0.00000   0.00000   0.00000   0.00000
   D17        0.00000   0.00000   0.00000   0.00000   0.00000   0.00000
   D18        3.14159   0.00000   0.00000   0.00000   0.00000   3.14159
   D19        3.14159   0.00000   0.00000   0.00000   0.00000   3.14159
   D20       -0.00000   0.00000   0.00000   0.00000   0.00000   0.00000
         Item               Value     Threshold  Converged?
 Maximum Force            0.000202     0.000450     YES
 RMS     Force            0.000057     0.000300     YES
 Maximum Displacement     0.001069     0.001800     YES
 RMS     Displacement     0.000283     0.001200     YES
 Predicted change in Energy=-4.020954D-07
 Optimization completed.
    -- Stationary point found.
                           ----------------------------
                           !   Optimized Parameters   !
                           ! (Angstroms and Degrees)  !
 --------------------------                            --------------------------
 ! Name  Definition              Value          Derivative Info.                !
 --------------------------------------------------------------------------------
 ! R1    R(1,2)                  1.3714         -DE/DX =    0.0                 !
 ! R2    R(1,6)                  1.3948         -DE/DX =    0.0001              !
 ! R3    R(1,8)                  1.0823         -DE/DX =    0.0                 !
 ! R4    R(2,3)                  1.3714         -DE/DX =    0.0                 !
 ! R5    R(3,4)                  1.3948         -DE/DX =    0.0001              !
 ! R6    R(3,9)                  1.0823         -DE/DX =    0.0                 !
 ! R7    R(4,5)                  1.3901         -DE/DX =    0.0                 !
 ! R8    R(4,10)                 1.7402         -DE/DX =    0.0                 !
 ! R9    R(5,6)                  1.3901         -DE/DX =    0.0                 !
 ! R10   R(5,11)                 1.0811         -DE/DX =    0.0                 !
 ! R11   R(6,7)                  1.7402         -DE/DX =    0.0                 !
 ! A1    A(2,1,6)              115.4785         -DE/DX =   -0.0001              !
 ! A2    A(2,1,8)              123.4139         -DE/DX =    0.0                 !
 ! A3    A(6,1,8)              121.1075         -DE/DX =    0.0001              !
 ! A4    A(1,2,3)              126.6711         -DE/DX =    0.0002              !
 ! A5    A(2,3,4)              115.4785         -DE/DX =   -0.0001              !
 ! A6    A(2,3,9)              123.4139         -DE/DX =    0.0                 !
 ! A7    A(4,3,9)              121.1075         -DE/DX =    0.0001              !
 ! A8    A(3,4,5)              121.7704         -DE/DX =    0.0001              !
 ! A9    A(3,4,10)             119.3063         -DE/DX =    0.0                 !
 ! A10   A(5,4,10)             118.9233         -DE/DX =    0.0                 !
 ! A11   A(4,5,6)              118.831          -DE/DX =   -0.0001              !
 ! A12   A(4,5,11)             120.5845         -DE/DX =    0.0                 !
 ! A13   A(6,5,11)             120.5845         -DE/DX =    0.0                 !
 ! A14   A(1,6,5)              121.7704         -DE/DX =    0.0001              !
 ! A15   A(1,6,7)              119.3063         -DE/DX =    0.0                 !
 ! A16   A(5,6,7)              118.9233         -DE/DX =    0.0                 !
 ! D1    D(6,1,2,3)              0.0            -DE/DX =    0.0                 !
 ! D2    D(8,1,2,3)            180.0            -DE/DX =    0.0                 !
 ! D3    D(2,1,6,5)              0.0            -DE/DX =    0.0                 !
 ! D4    D(2,1,6,7)            180.0            -DE/DX =    0.0                 !
 ! D5    D(8,1,6,5)            180.0            -DE/DX =    0.0                 !
 ! D6    D(8,1,6,7)              0.0            -DE/DX =    0.0                 !
 ! D7    D(1,2,3,4)              0.0            -DE/DX =    0.0                 !
 ! D8    D(1,2,3,9)            180.0            -DE/DX =    0.0                 !
 ! D9    D(2,3,4,5)              0.0            -DE/DX =    0.0                 !
 ! D10   D(2,3,4,10)           180.0            -DE/DX =    0.0                 !
 ! D11   D(9,3,4,5)            180.0            -DE/DX =    0.0                 !
 ! D12   D(9,3,4,10)             0.0            -DE/DX =    0.0                 !
 ! D13   D(3,4,5,6)              0.0            -DE/DX =    0.0                 !
 ! D14   D(3,4,5,11)           180.0            -DE/DX =    0.0                 !
 ! D15   D(10,4,5,6)           180.0            -DE/DX =    0.0                 !
 ! D16   D(10,4,5,11)            0.0            -DE/DX =    0.0                 !
 ! D17   D(4,5,6,1)              0.0            -DE/DX =    0.0                 !
 ! D18   D(4,5,6,7)            180.0            -DE/DX =    0.0                 !
 ! D19   D(11,5,6,1)           180.0            -DE/DX =    0.0                 !
 ! D20   D(11,5,6,7)             0.0            -DE/DX =    0.0                 !
 --------------------------------------------------------------------------------
 GradGradGradGradGradGradGradGradGradGradGradGradGradGradGradGradGradGrad


 ----------------------------------------------------------------------

 Electric dipole moment (input orientation):
 (Debye = 10**-18 statcoulomb cm , SI units = C m)
                  (au)            (Debye)         (10**-30 SI)
   Tot        0.330180D+00      0.839235D+00      0.279939D+01
   x         -0.906701D-02     -0.230460D-01     -0.768733D-01
   y          0.330056D+00      0.838918D+00      0.279833D+01
   z          0.000000D+00      0.000000D+00      0.000000D+00

 Dipole polarizability, Alpha (input orientation).
 (esu units = cm**3 , SI units = C**2 m**2 J**-1)
 Alpha(0;0):
               (au)            (10**-24 esu)      (10**-40 SI)
   iso        0.889639D+02      0.131831D+02      0.146682D+02
   aniso      0.636378D+02      0.943015D+01      0.104925D+02
   xx         0.123375D+03      0.182822D+02      0.203417D+02
   yx         0.828648D+00      0.122793D+00      0.136626D+00
   yy         0.932333D+02      0.138157D+02      0.153721D+02
   zx         0.000000D+00      0.000000D+00      0.000000D+00
   zy         0.000000D+00      0.000000D+00      0.000000D+00
   zz         0.502839D+02      0.745130D+01      0.829069D+01

 ----------------------------------------------------------------------

 Dipole orientation:
     6         -6.06487374         -0.16660907          0.54836794
     6         -3.74978534         -0.10301093          1.71137622
     6         -1.43469664         -0.03941277          0.54836844
     6         -1.48922779         -0.04091080         -2.08685742
     6         -3.74978479         -0.10301091         -3.42342724
     6         -6.01034206         -0.16511102         -2.08685786
    17         -8.84300606         -0.24292757         -3.75553278
     1         -7.83686335         -0.21528767          1.56858220
     1          0.33729269          0.00926582          1.56858299
    17          1.34343654          0.03690575         -3.75553168
     1         -3.74978459         -0.10301091         -5.46643879

 Electric dipole moment (dipole orientation):
 (Debye = 10**-18 statcoulomb cm , SI units = C m)
                  (au)            (Debye)         (10**-30 SI)
   Tot        0.330180D+00      0.839235D+00      0.279939D+01
   x          0.000000D+00      0.000000D+00      0.000000D+00
   y          0.000000D+00      0.000000D+00      0.000000D+00
   z          0.330180D+00      0.839235D+00      0.279939D+01

 Dipole polarizability, Alpha (dipole orientation).
 (esu units = cm**3 , SI units = C**2 m**2 J**-1)
 Alpha(0;0):
               (au)            (10**-24 esu)      (10**-40 SI)
   iso        0.889639D+02      0.131831D+02      0.146682D+02
   aniso      0.636378D+02      0.943015D+01      0.104925D+02
   xx         0.123342D+03      0.182774D+02      0.203364D+02
   yx         0.200700D+01      0.297406D+00      0.330909D+00
   yy         0.503390D+02      0.745947D+01      0.829978D+01
   zx         0.000000D+00      0.000000D+00      0.000000D+00
   zy         0.000000D+00      0.000000D+00      0.000000D+00
   zz         0.932105D+02      0.138124D+02      0.153683D+02

 ----------------------------------------------------------------------
 1\1\GINC-SH03-01N63\Freq\UM062X\6-311++G(d,p)\C6H3Cl2(2)\JLAPIER\09-De
 c-2025\0\\#N Geom=AllCheck Guess=TCheck SCRF=Check GenChk UM062X/6-311
 ++G(d,p) Freq\\Neutral Radical (removed 3) 1_5\\0,2\C,-3.2173616505,0.
 201908661,0.\C,-2.009170026,0.8507687318,0.\C,-0.7671774524,0.26921830
 72,0.\C,-0.7577399788,-1.1255499965,0.\C,-1.9345526913,-1.8654275156,0
 .\C,-3.1502106095,-1.1912741567,0.\Cl,-4.624943285,-2.1151446319,0.\H,
 -4.1698835368,0.7158195927,0.\H,0.1556935429,0.8346486032,0.\Cl,0.7654
 899826,-1.9670626363,0.\H,-1.9048643062,-2.9461349594,0.\\Version=ES64
 L-G16RevB.01\State=2-A'\HF=-1150.7128154\S2=0.762379\S2-1=0.\S2A=0.750
 072\RMSD=6.078e-09\RMSF=1.006e-04\ZeroPoint=0.0688531\Thermal=0.075463
 9\Dipole=-0.009067,0.3300558,0.\DipoleDeriv=-0.2208308,-0.1084856,0.,-
 0.1790288,-0.2625645,0.,0.,0.,-0.0984624,0.1660764,0.0064964,0.,0.0064
 964,-0.0702259,0.,0.,0.,-0.0414043,-0.2367177,0.1099067,0.,0.18045,-0.
 2466777,0.,0.,0.,-0.0984624,1.0748974,-0.42519,0.,-0.4301388,0.4582398
 ,0.,0.,0.,-0.0053769,-0.6169077,-0.0141646,0.,-0.0141646,-0.1016833,0.
 ,0.,0.,-0.111819,1.026151,0.4564162,0.,0.4613648,0.506986,0.,0.,0.,-0.
 0053769,-0.6660966,-0.3151481,0.,-0.359765,-0.2890692,0.,0.,0.,-0.0576
 875,0.0422292,0.0207252,0.,0.0152178,0.1083017,0.,0.,0.,0.161507,0.044
 3987,-0.0242389,0.,-0.0187314,0.1061322,0.,0.,0.,0.161507,-0.7019577,0
 .2924458,0.,0.3370627,-0.2532081,0.,0.,0.,-0.0576875,0.0887576,0.00123
 68,0.,0.0012368,0.0437688,0.,0.,0.,0.1532631\Polar=123.3746573,0.82864
 77,93.2332539,0.,0.,50.2838868\Quadrupole=-0.3066097,2.2592457,-1.9526
 36,-0.0705406,0.,0.\PG=CS [SG(C6H3Cl2)]\NImag=0\\0.76033114,-0.0438205
 8,0.62015941,0.,0.,0.11903651,-0.31135378,-0.08396848,0.,0.68745112,-0
 .12366410,-0.15138151,0.,0.00954568,0.34023550,0.,0.,-0.05103430,0.,0.
 ,0.07562902,-0.05571632,-0.02373903,0.,-0.32225363,0.11426884,0.,0.755
 10436,0.01686467,0.06930850,0.,0.07457321,-0.14048161,0.,0.05124047,0.
 62538620,0.,0.,0.00584513,0.,0.,-0.05103430,0.,0.,0.11903651,-0.016439
 89,-0.03822364,0.,0.03008392,0.02877725,0.,-0.10799861,0.02637362,0.,0
 .55312571,-0.03653000,-0.06496735,0.,0.10859517,-0.02499990,0.,-0.0598
 6059,-0.31605285,0.,0.05853096,0.61363762,0.,0.,-0.00177589,0.,0.,0.01
 269716,0.,0.,-0.06287617,0.,0.,0.12220634,0.03518809,0.08190442,0.,-0.
 08321630,-0.00215655,0.,0.04087035,-0.07849587,0.,-0.25743098,-0.06551
 968,0.,0.66504010,0.02484815,-0.02112125,0.,-0.00215655,-0.00477354,0.
 ,-0.02143961,-0.02680352,0.,-0.14204358,-0.18963436,0.,-0.00299444,0.7
 7396084,0.,0.,0.00793754,0.,0.,-0.00370238,0.,0.,0.00793754,0.,0.,-0.0
 6156802,0.,0.,0.12468049,-0.11046141,-0.01506937,0.,0.03744841,-0.0253
 4360,0.,-0.02068403,0.04065851,0.,-0.06866344,-0.04142851,0.,-0.268604
 88,0.13770146,0.,0.55972521,0.07116483,-0.31359010,0.,-0.10516152,-0.0
 3236439,0.,0.03896488,-0.06072322,0.,0.03337884,0.07773686,0.,0.061177
 56,-0.17846045,0.,-0.06149529,0.60703815,0.,0.,-0.06287616,0.,0.,0.012
 69716,0.,0.,-0.00177589,0.,0.,0.00253714,0.,0.,-0.06156802,0.,0.,0.122
 20634,-0.01352261,-0.01051651,0.,0.00123245,-0.00283950,0.,-0.00157067
 ,-0.00153381,0.,0.00147539,0.00508458,0.,-0.03934920,-0.02482747,0.,-0
 .13522539,-0.05893662,0.,0.18742547,-0.03729764,-0.02104463,0.,0.00317
 584,-0.00566425,0.,-0.00187118,0.00204636,0.,0.00105771,-0.00147473,0.
 ,0.00172121,0.00467827,0.,-0.06008437,-0.07622597,0.,0.09365918,0.0949
 5421,0.,0.,0.00528699,0.,0.,0.00446706,0.,0.,-0.00102894,0.,0.,0.00508
 211,0.,0.,0.00465547,0.,0.,-0.02311141,0.,0.,0.01057918,-0.27907041,0.
 12821458,0.,-0.01937985,0.00902730,0.,-0.00240744,-0.00167270,0.,0.000
 02525,-0.00118582,0.,0.00142046,-0.00062613,0.,0.00210473,-0.00233534,
 0.,0.00080469,-0.00067972,0.,0.29657990,0.12044501,-0.11936881,0.,-0.0
 1215855,0.01199888,0.,-0.00431629,-0.00115965,0.,-0.00075061,-0.001310
 94,0.,-0.00095308,-0.00519056,0.,0.02764190,-0.01075319,0.,0.00055836,
 0.00123879,0.,-0.13127325,0.12419151,0.,0.,-0.03258765,0.,0.,-0.001587
 44,0.,0.,0.00570822,0.,0.,-0.00018424,0.,0.,0.00545277,0.,0.,0.0044902
 8,0.,0.,-0.00267156,0.,0.,0.02171587,-0.00273198,0.00158624,0.,-0.0194
 5692,-0.01075687,0.,-0.26495803,-0.13621970,0.,0.00345323,0.00311647,0
 .,0.00131396,0.00098378,0.,-0.00008493,0.00125323,0.,0.00008524,-0.000
 12990,0.,-0.00039766,-0.00053144,0.,0.28166802,0.00422984,-0.00083511,
 0.,0.01042899,0.01207595,0.,-0.12845013,-0.13348128,0.,-0.02686078,-0.
 01210170,0.,0.00131072,-0.00508406,0.,0.00081802,-0.00120076,0.,-0.000
 05841,0.00016386,0.,0.00048261,0.00049041,0.,0.13993198,0.13910348,0.,
 0.,0.00570822,0.,0.,-0.00158744,0.,0.,-0.03258764,0.,0.,0.00449028,0.,
 0.,0.00545277,0.,0.,-0.00018424,0.,0.,-0.00046561,0.,0.,-0.00006716,0.
 ,0.,0.02171586,-0.00174642,0.00132527,0.,0.00123010,0.00321858,0.,-0.0
 1616637,0.01078474,0.,-0.14157211,0.05534363,0.,-0.04048314,0.02234432
 ,0.,0.00180320,-0.00490435,0.,-0.00190018,-0.00013680,0.,0.00007515,0.
 00005353,0.,0.00079935,-0.00058252,0.,0.19741524,0.00166264,0.00222211
 ,0.,-0.00279676,-0.00566190,0.,0.03756587,-0.01840086,0.,0.05649139,-0
 .06987928,0.,-0.00420436,0.00581221,0.,-0.00087748,-0.00180254,0.,0.00
 000983,0.00040909,0.,0.00012502,0.00017394,0.,0.00065556,0.00124413,0.
 ,-0.08802548,0.08496446,0.,0.,-0.00102894,0.,0.,0.00446706,0.,0.,0.005
 28699,0.,0.,-0.02311140,0.,0.,0.00465547,0.,0.,0.00508211,0.,0.,-0.000
 04175,0.,0.,-0.00046560,0.,0.,-0.00267156,0.,0.,0.01057918,-0.00447640
 ,0.00230711,0.,-0.00178552,-0.00007704,0.,-0.00421961,-0.00257314,0.,0
 .00394154,-0.02614622,0.,-0.05474846,0.00821008,0.,0.00264254,0.026893
 77,0.,0.00054482,0.00058568,0.,0.00024519,0.00128442,0.,0.00030973,-0.
 00125032,0.,0.00054519,-0.00060623,0.,0.05700098,0.00209719,0.00061874
 ,0.,-0.00007704,0.00101679,0.,-0.00236323,0.00036194,0.,0.00326882,-0.
 01095336,0.,0.00821008,-0.35338356,0.,-0.00252127,-0.00965437,0.,-0.00
 059962,0.00091901,0.,-0.00007654,-0.00031038,0.,0.00011064,-0.00037492
 ,0.,0.00057907,0.00091864,0.,-0.00862810,0.37084148,0.,0.,0.00548855,0
 .,0.,-0.00101160,0.,0.,0.00548855,0.,0.,0.00250269,0.,0.,-0.03393362,0
 .,0.,0.00250269,0.,0.,-0.00275156,0.,0.,0.00019652,0.,0.,0.00019651,0.
 ,0.,-0.00275156,0.,0.,0.02407282\\0.00018203,-0.00019750,0.,-0.0000081
 9,0.00029751,0.,-0.00017086,-0.00020717,0.,0.00019760,-0.00000771,0.,-
 0.00000350,0.00012757,0.,-0.00019688,-0.00001852,0.,0.00003996,0.00001
 766,0.,0.00000198,-0.00003025,0.,-0.00000034,-0.00003033,0.,-0.0000408
 7,0.00001545,0.,-0.00000091,0.00003330,0.\\\@


 My opinions may have changed, but not the fact that I am right.
                       -- Ashleigh Brilliant
 Job cpu time:       0 days  0 hours 24 minutes 51.8 seconds.
 Elapsed time:       0 days  0 hours  6 minutes 18.4 seconds.
 File lengths (MBytes):  RWF=    142 Int=      0 D2E=      0 Chk=     34 Scr=      1
 Normal termination of Gaussian 16 at Tue Dec  9 13:52:45 2025.
