 Entering Gaussian System, Link 0=g16
 Initial command:
 /share/software/user/restricted/gaussian/g16.B01/l1.exe "/home/users/jlapier/Chloroaromatics/Gau-9068.inp" -scrdir="/home/users/jlapier/Chloroaromatics/"
 Entering Link 1 = /share/software/user/restricted/gaussian/g16.B01/l1.exe PID=      9069.
  
 Copyright (c) 1988-2017, Gaussian, Inc.  All Rights Reserved.
  
 This is part of the Gaussian(R) 16 program.  It is based on
 the Gaussian(R) 09 system (copyright 2009, Gaussian, Inc.),
 the Gaussian(R) 03 system (copyright 2003, Gaussian, Inc.),
 the Gaussian(R) 98 system (copyright 1998, Gaussian, Inc.),
 the Gaussian(R) 94 system (copyright 1995, Gaussian, Inc.),
 the Gaussian 92(TM) system (copyright 1992, Gaussian, Inc.),
 the Gaussian 90(TM) system (copyright 1990, Gaussian, Inc.),
 the Gaussian 88(TM) system (copyright 1988, Gaussian, Inc.),
 the Gaussian 86(TM) system (copyright 1986, Carnegie Mellon
 University), and the Gaussian 82(TM) system (copyright 1983,
 Carnegie Mellon University). Gaussian is a federally registered
 trademark of Gaussian, Inc.
  
 This software contains proprietary and confidential information,
 including trade secrets, belonging to Gaussian, Inc.
  
 This software is provided under written license and may be
 used, copied, transmitted, or stored only in accord with that
 written license.
  
 The following legend is applicable only to US Government
 contracts under FAR:
  
                    RESTRICTED RIGHTS LEGEND
  
 Use, reproduction and disclosure by the US Government is
 subject to restrictions as set forth in subparagraphs (a)
 and (c) of the Commercial Computer Software - Restricted
 Rights clause in FAR 52.227-19.
  
 Gaussian, Inc.
 340 Quinnipiac St., Bldg. 40, Wallingford CT 06492
  
  
 ---------------------------------------------------------------
 Warning -- This program may not be used in any manner that
 competes with the business of Gaussian, Inc. or will provide
 assistance to any competitor of Gaussian, Inc.  The licensee
 of this program is prohibited from giving any competitor of
 Gaussian, Inc. access to this program.  By using this program,
 the user acknowledges that Gaussian, Inc. is engaged in the
 business of creating and licensing software in the field of
 computational chemistry and represents and warrants to the
 licensee that it is not a competitor of Gaussian, Inc. and that
 it will not use this program in any manner prohibited above.
 ---------------------------------------------------------------
  

 Cite this work as:
 Gaussian 16, Revision B.01,
 M. J. Frisch, G. W. Trucks, H. B. Schlegel, G. E. Scuseria, 
 M. A. Robb, J. R. Cheeseman, G. Scalmani, V. Barone, 
 G. A. Petersson, H. Nakatsuji, X. Li, M. Caricato, A. V. Marenich, 
 J. Bloino, B. G. Janesko, R. Gomperts, B. Mennucci, H. P. Hratchian, 
 J. V. Ortiz, A. F. Izmaylov, J. L. Sonnenberg, D. Williams-Young, 
 F. Ding, F. Lipparini, F. Egidi, J. Goings, B. Peng, A. Petrone, 
 T. Henderson, D. Ranasinghe, V. G. Zakrzewski, J. Gao, N. Rega, 
 G. Zheng, W. Liang, M. Hada, M. Ehara, K. Toyota, R. Fukuda, 
 J. Hasegawa, M. Ishida, T. Nakajima, Y. Honda, O. Kitao, H. Nakai, 
 T. Vreven, K. Throssell, J. A. Montgomery, Jr., J. E. Peralta, 
 F. Ogliaro, M. J. Bearpark, J. J. Heyd, E. N. Brothers, K. N. Kudin, 
 V. N. Staroverov, T. A. Keith, R. Kobayashi, J. Normand, 
 K. Raghavachari, A. P. Rendell, J. C. Burant, S. S. Iyengar, 
 J. Tomasi, M. Cossi, J. M. Millam, M. Klene, C. Adamo, R. Cammi, 
 J. W. Ochterski, R. L. Martin, K. Morokuma, O. Farkas, 
 J. B. Foresman, and D. J. Fox, Gaussian, Inc., Wallingford CT, 2016.
 
 ******************************************
 Gaussian 16:  ES64L-G16RevB.01 20-Dec-2017
                 9-Dec-2025 
 ******************************************
 %mem=8GB
 %nprocshare=4
 Will use up to    4 processors via shared memory.
 %oldchk=geometry_chks/1ClBzAnionRadical.chk
 %chk=frequency_chks/1ClBzAnionRadical_Freq.chk
 Copying data from "geometry_chks/1ClBzAnionRadical.chk" to current chk file "frequency_chks/1ClBzAnionRadical_Freq.chk"
 IOpt=  2 FromEx=T IUOpen= 4 IOptOp= 5 NList=   0 IFRang= 0 IUIn= 4 IUOut= 2.
 -------------------------------------------------------
 # opt freq 6-311++g(d,p) guess=read geom=allcheck m062x
 -------------------------------------------------------
 1/18=20,19=15,26=3,29=7,38=1/1,3;
 2/9=110,12=2,40=1/2;
 3/5=4,6=6,7=1111,11=2,14=-4,25=1,30=1,71=1,74=-55,116=-2/1,2,3;
 4/5=1/1;
 5/5=2,38=6/2;
 6/7=2,8=2,9=2,10=2,28=1/1;
 7//1,2,3,16;
 1/18=20,19=15,26=3/3(2);
 2/9=110/2;
 99//99;
 2/9=110/2;
 3/5=4,6=6,7=1111,11=2,14=-2,25=1,30=1,71=1,74=-55/1,2,3;
 4/5=5,16=3,69=1/1;
 5/5=2,38=5/2;
 7//1,2,3,16;
 1/18=20,19=15,26=3/3(-5);
 2/9=110/2;
 6/7=2,8=2,9=2,10=2,19=2,28=1/1;
 99/9=1/99;
 Structure from the checkpoint file:  "frequency_chks/1ClBzAnionRadical_Freq.chk"
 ----------------------------------
 1-Chloro-Benzene Anion Radical (1)
 ----------------------------------
 Charge = -1 Multiplicity = 2
 Redundant internal coordinates found in file.  (old form).
 C,0,-3.1841878839,0.213521636,0.
 C,0,-1.9847336459,0.9281772126,0.
 C,0,-0.7412442898,0.2871344248,0.
 C,0,-0.7310057298,-1.1118300121,0.
 C,0,-1.9103965454,-1.859139341,0.
 C,0,-3.1342861976,-1.1835555036,0.
 Cl,0,-4.6041011473,-2.0868554665,0.
 H,0,-4.153816205,0.7291943225,0.
 H,0,-2.0190223318,2.0262465747,0.
 H,0,0.4431238086,1.0150120182,0.
 H,0,0.2332781989,-1.6384760808,0.
 H,0,-1.8883080303,-2.957259786,0.
 Recover connectivity data from disk.

 GradGradGradGradGradGradGradGradGradGradGradGradGradGradGradGradGradGrad
 Berny optimization.
 Initialization pass.
                           ----------------------------
                           !    Initial Parameters    !
                           ! (Angstroms and Degrees)  !
 --------------------------                            --------------------------
 ! Name  Definition              Value          Derivative Info.                !
 --------------------------------------------------------------------------------
 ! R1    R(1,2)                  1.3962         estimate D2E/DX2                !
 ! R2    R(1,6)                  1.398          estimate D2E/DX2                !
 ! R3    R(1,8)                  1.0982         estimate D2E/DX2                !
 ! R4    R(2,3)                  1.399          estimate D2E/DX2                !
 ! R5    R(2,9)                  1.0986         estimate D2E/DX2                !
 ! R6    R(3,4)                  1.399          estimate D2E/DX2                !
 ! R7    R(3,10)                 1.3902         estimate D2E/DX2                !
 ! R8    R(4,5)                  1.3962         estimate D2E/DX2                !
 ! R9    R(4,11)                 1.0987         estimate D2E/DX2                !
 ! R10   R(5,6)                  1.398          estimate D2E/DX2                !
 ! R11   R(5,12)                 1.0983         estimate D2E/DX2                !
 ! R12   R(6,7)                  1.7252         estimate D2E/DX2                !
 ! A1    A(2,1,6)              118.7416         estimate D2E/DX2                !
 ! A2    A(2,1,8)              121.2076         estimate D2E/DX2                !
 ! A3    A(6,1,8)              120.0508         estimate D2E/DX2                !
 ! A4    A(1,2,3)              121.9408         estimate D2E/DX2                !
 ! A5    A(1,2,9)              118.9987         estimate D2E/DX2                !
 ! A6    A(3,2,9)              119.0605         estimate D2E/DX2                !
 ! A7    A(2,3,4)              117.6913         estimate D2E/DX2                !
 ! A8    A(2,3,10)             121.1544         estimate D2E/DX2                !
 ! A9    A(4,3,10)             121.1543         estimate D2E/DX2                !
 ! A10   A(3,4,5)              121.9407         estimate D2E/DX2                !
 ! A11   A(3,4,11)             119.0606         estimate D2E/DX2                !
 ! A12   A(5,4,11)             118.9987         estimate D2E/DX2                !
 ! A13   A(4,5,6)              118.7414         estimate D2E/DX2                !
 ! A14   A(4,5,12)             121.2076         estimate D2E/DX2                !
 ! A15   A(6,5,12)             120.0509         estimate D2E/DX2                !
 ! A16   A(1,6,5)              120.9442         estimate D2E/DX2                !
 ! A17   A(1,6,7)              119.5279         estimate D2E/DX2                !
 ! A18   A(5,6,7)              119.5279         estimate D2E/DX2                !
 ! D1    D(6,1,2,3)              0.0            estimate D2E/DX2                !
 ! D2    D(6,1,2,9)            180.0            estimate D2E/DX2                !
 ! D3    D(8,1,2,3)            180.0            estimate D2E/DX2                !
 ! D4    D(8,1,2,9)              0.0            estimate D2E/DX2                !
 ! D5    D(2,1,6,5)              0.0            estimate D2E/DX2                !
 ! D6    D(2,1,6,7)            180.0            estimate D2E/DX2                !
 ! D7    D(8,1,6,5)            180.0            estimate D2E/DX2                !
 ! D8    D(8,1,6,7)              0.0            estimate D2E/DX2                !
 ! D9    D(1,2,3,4)              0.0            estimate D2E/DX2                !
 ! D10   D(1,2,3,10)           180.0            estimate D2E/DX2                !
 ! D11   D(9,2,3,4)            180.0            estimate D2E/DX2                !
 ! D12   D(9,2,3,10)             0.0            estimate D2E/DX2                !
 ! D13   D(2,3,4,5)              0.0            estimate D2E/DX2                !
 ! D14   D(2,3,4,11)           180.0            estimate D2E/DX2                !
 ! D15   D(10,3,4,5)           180.0            estimate D2E/DX2                !
 ! D16   D(10,3,4,11)            0.0            estimate D2E/DX2                !
 ! D17   D(3,4,5,6)              0.0            estimate D2E/DX2                !
 ! D18   D(3,4,5,12)           180.0            estimate D2E/DX2                !
 ! D19   D(11,4,5,6)           180.0            estimate D2E/DX2                !
 ! D20   D(11,4,5,12)            0.0            estimate D2E/DX2                !
 ! D21   D(4,5,6,1)              0.0            estimate D2E/DX2                !
 ! D22   D(4,5,6,7)            180.0            estimate D2E/DX2                !
 ! D23   D(12,5,6,1)           180.0            estimate D2E/DX2                !
 ! D24   D(12,5,6,7)             0.0            estimate D2E/DX2                !
 --------------------------------------------------------------------------------
 Trust Radius=3.00D-01 FncErr=1.00D-07 GrdErr=1.00D-06 EigMax=2.50D+02 EigMin=1.00D-04
 Number of steps in this run=     64 maximum allowed number of steps=    100.
 GradGradGradGradGradGradGradGradGradGradGradGradGradGradGradGradGradGrad

                          Input orientation:                          
 ---------------------------------------------------------------------
 Center     Atomic      Atomic             Coordinates (Angstroms)
 Number     Number       Type             X           Y           Z
 ---------------------------------------------------------------------
      1          6           0       -3.184188    0.213522    0.000000
      2          6           0       -1.984734    0.928177    0.000000
      3          6           0       -0.741244    0.287134    0.000000
      4          6           0       -0.731006   -1.111830   -0.000000
      5          6           0       -1.910397   -1.859139   -0.000000
      6          6           0       -3.134286   -1.183556    0.000000
      7         17           0       -4.604101   -2.086855    0.000000
      8          1           0       -4.153816    0.729194    0.000000
      9          1           0       -2.019022    2.026247    0.000000
     10          1           0        0.443124    1.015012    0.000000
     11          1           0        0.233278   -1.638476   -0.000000
     12          1           0       -1.888308   -2.957260   -0.000000
 ---------------------------------------------------------------------
                    Distance matrix (angstroms):
                    1          2          3          4          5
     1  C    0.000000
     2  C    1.396217   0.000000
     3  C    2.444052   1.399000   0.000000
     4  C    2.788308   2.394465   1.399002   0.000000
     5  C    2.432790   2.788308   2.444056   1.396221   0.000000
     6  C    1.397968   2.404347   2.808839   2.404351   1.397970
     7  Cl   2.703311   3.993934   4.534037   3.993938   2.703313
     8  H    1.098225   2.178190   3.441085   3.886515   3.425260
     9  H    2.154897   1.098605   2.158061   3.392125   3.886904
    10  H    3.714805   2.429410   1.390156   2.429411   3.714809
    11  H    3.887026   3.392239   2.158164   1.098726   2.155002
    12  H    3.425370   3.886633   3.441199   2.178293   1.098343
                    6          7          8          9         10
     6  C    0.000000
     7  Cl   1.725198   0.000000
     8  H    2.167499   2.851823   0.000000
     9  H    3.398035   4.858008   2.497937   0.000000
    10  H    4.198995   5.924193   4.605817   2.661721   0.000000
    11  H    3.398153   4.858115   4.985224   4.301517   2.661773
    12  H    2.167600   2.851865   4.326947   4.985220   4.605922
                   11         12
    11  H    0.000000
    12  H    2.498063   0.000000
 Stoichiometry    C6H5Cl(1-,2)
 Framework group  CS[SG(C6H5Cl)]
 Deg. of freedom    21
 Full point group                 CS      NOp   2
 Largest Abelian subgroup         CS      NOp   2
 Largest concise Abelian subgroup C1      NOp   1
                         Standard orientation:                         
 ---------------------------------------------------------------------
 Center     Atomic      Atomic             Coordinates (Angstroms)
 Number     Number       Type             X           Y           Z
 ---------------------------------------------------------------------
      1          6           0       -1.216398   -0.162430   -0.000000
      2          6           0       -1.197245   -1.558516   -0.000000
      3          6           0       -0.000019   -2.282292    0.000000
      4          6           0        1.197220   -1.558534    0.000000
      5          6           0        1.216392   -0.162444    0.000000
      6          6           0        0.000000    0.526548   -0.000000
      7         17           0        0.000009    2.251745   -0.000000
      8          1           0       -2.163422    0.393666   -0.000000
      9          1           0       -2.150722   -2.104239   -0.000000
     10          1           0       -0.000029   -3.672448    0.000000
     11          1           0        2.150795   -2.104331    0.000000
     12          1           0        2.163525    0.393699    0.000000
 ---------------------------------------------------------------------
 Rotational constants (GHZ):           5.6995495           1.5591460           1.2242461
 Standard basis: 6-311++G(d,p) (5D, 7F)
 There are   155 symmetry adapted cartesian basis functions of A'  symmetry.
 There are    49 symmetry adapted cartesian basis functions of A"  symmetry.
 There are   148 symmetry adapted basis functions of A'  symmetry.
 There are    49 symmetry adapted basis functions of A"  symmetry.
   197 basis functions,   314 primitive gaussians,   204 cartesian basis functions
    30 alpha electrons       29 beta electrons
       nuclear repulsion energy       314.0065812266 Hartrees.
 NAtoms=   12 NActive=   12 NUniq=   12 SFac= 1.00D+00 NAtFMM=   60 NAOKFM=F Big=F
 Integral buffers will be    131072 words long.
 Raffenetti 2 integral format.
 Two-electron integral symmetry is turned on.
 One-electron integrals computed using PRISM.
 NBasis=   197 RedAO= T EigKep=  1.12D-06  NBF=   148    49
 NBsUse=   197 1.00D-06 EigRej= -1.00D+00 NBFU=   148    49
 Initial guess from the checkpoint file:  "frequency_chks/1ClBzAnionRadical_Freq.chk"
 B after Tr=    -0.000000    0.000000    0.000000
         Rot=    1.000000    0.000000    0.000000    0.000000 Ang=   0.00 deg.
 Initial guess orbital symmetries:
 Alpha Orbitals:
       Occupied  (A') (A') (A') (A') (A') (A') (A') (A') (A') (A")
                 (A') (A') (A') (A") (A') (A') (A") (A") (A') (A")
                 (A") (A') (A") (A') (A') (A') (A') (A') (A') (A')
       Virtual   (A') (A') (A') (A') (A') (A') (A') (A') (A') (A')
                 (A') (A') (A') (A') (A') (A') (A') (A') (A') (A')
                 (A') (A') (A') (A') (A') (A') (A') (A') (A') (A')
                 (A') (A') (A') (A') (A') (A') (A') (A') (A') (A')
                 (A') (A') (A') (A') (A') (A') (A') (A') (A') (A')
                 (A') (A') (A') (A') (A') (A') (A') (A') (A') (A')
                 (A') (A') (A') (A') (A') (A') (A') (A') (A') (A')
                 (A') (A') (A') (A') (A') (A') (A') (A') (A') (A')
                 (A') (A') (A') (A') (A') (A') (A') (A') (A') (A')
                 (A') (A') (A') (A') (A') (A') (A') (A') (A') (A')
                 (A') (A') (A') (A') (A') (A') (A') (A') (A') (A')
                 (A') (A') (A') (A') (A') (A') (A') (A') (A') (A')
                 (A') (A') (A') (A') (A') (A") (A") (A") (A") (A")
                 (A") (A") (A") (A") (A") (A") (A") (A") (A") (A")
                 (A") (A") (A") (A") (A") (A") (A") (A") (A") (A")
                 (A") (A") (A") (A") (A") (A") (A") (A") (A") (A")
                 (A") (A") (A") (A") (A") (A") (A")
 Beta  Orbitals:
       Occupied  (A') (A') (A') (A') (A') (A') (A') (A') (A') (A")
                 (A') (A') (A') (A") (A') (A") (A') (A") (A") (A')
                 (A") (A') (A") (A') (A') (A') (A') (A') (A')
       Virtual   (A') (A') (A') (A') (A') (A') (A') (A') (A') (A')
                 (A') (A') (A') (A') (A') (A') (A') (A') (A') (A')
                 (A') (A') (A') (A') (A') (A') (A') (A') (A') (A')
                 (A') (A') (A') (A') (A') (A') (A') (A') (A') (A')
                 (A') (A') (A') (A') (A') (A') (A') (A') (A') (A')
                 (A') (A') (A') (A') (A') (A') (A') (A') (A') (A')
                 (A') (A') (A') (A') (A') (A') (A') (A') (A') (A')
                 (A') (A') (A') (A') (A') (A') (A') (A') (A') (A')
                 (A') (A') (A') (A') (A') (A') (A') (A') (A') (A')
                 (A') (A') (A') (A') (A') (A') (A') (A') (A') (A')
                 (A') (A') (A') (A') (A') (A') (A') (A') (A') (A')
                 (A') (A') (A') (A') (A') (A') (A') (A') (A') (A')
                 (A') (A') (A') (A') (A') (A') (A") (A") (A") (A")
                 (A") (A") (A") (A") (A") (A") (A") (A") (A") (A")
                 (A") (A") (A") (A") (A") (A") (A") (A") (A") (A")
                 (A") (A") (A") (A") (A") (A") (A") (A") (A") (A")
                 (A") (A") (A") (A") (A") (A") (A") (A")
 Initial guess <Sx>= 0.0000 <Sy>= 0.0000 <Sz>= 0.5000 <S**2>= 0.7602 S= 0.5051
 Keep R1 and R2 ints in memory in symmetry-blocked form, NReq=304090353.
 Requested convergence on RMS density matrix=1.00D-08 within 128 cycles.
 Requested convergence on MAX density matrix=1.00D-06.
 Requested convergence on             energy=1.00D-06.
 No special actions if energy rises.
 EnCoef did     5 forward-backward iterations
 SCF Done:  E(UM062X) =  -691.734505087     A.U. after   47 cycles
            NFock= 47  Conv=0.60D-08     -V/T= 2.0032
 <Sx>= 0.0000 <Sy>= 0.0000 <Sz>= 0.5000 <S**2>= 0.7513 S= 0.5006
 <L.S>=  0.00000000000    
 Annihilation of the first spin contaminant:
 S**2 before annihilation     0.7513,   after     0.7500

 **********************************************************************

            Population analysis using the SCF Density.

 **********************************************************************

 Orbital symmetries:
 Alpha Orbitals:
       Occupied  (A') (A') (A') (A') (A') (A') (A') (A') (A') (A")
                 (A') (A') (A') (A') (A') (A') (A') (A') (A') (A')
                 (A') (A') (A") (A') (A") (A') (A') (A") (A") (A')
       Virtual   (A') (A') (A') (A") (A") (A') (A') (A") (A') (A')
                 (A') (A") (A") (A') (A') (A') (A') (A") (A') (A')
                 (A") (A") (A') (A') (A") (A') (A') (A') (A') (A')
                 (A') (A") (A') (A') (A') (A') (A') (A') (A') (A')
                 (A') (A') (A') (A') (A') (A') (A") (A') (A') (A')
                 (A') (A") (A') (A') (A') (A") (A") (A') (A') (A")
                 (A") (A") (A') (A') (A') (A') (A') (A') (A') (A')
                 (A") (A') (A') (A') (A") (A') (A') (A') (A') (A')
                 (A') (A") (A") (A') (A") (A") (A") (A') (A') (A')
                 (A") (A') (A') (A') (A') (A") (A') (A") (A") (A')
                 (A') (A") (A') (A') (A") (A') (A') (A") (A") (A')
                 (A') (A") (A') (A') (A') (A') (A") (A") (A') (A')
                 (A") (A") (A') (A') (A') (A') (A') (A') (A') (A")
                 (A') (A') (A') (A') (A') (A') (A') (A") (A") (A")
                 (A") (A') (A") (A') (A') (A') (A') (A') (A') (A')
                 (A') (A') (A') (A') (A') (A') (A') (A') (A') (A')
                 (A') (A') (A') (A") (A') (A') (A')
 Beta  Orbitals:
       Occupied  (A') (A') (A') (A') (A') (A') (A') (A') (A') (A")
                 (A') (A') (A') (A') (A') (A') (A') (A') (A') (A')
                 (A') (A') (A") (A') (A") (A') (A') (A") (A")
       Virtual   (A') (A") (A") (A') (A') (A') (A") (A') (A') (A')
                 (A") (A') (A") (A') (A") (A') (A') (A') (A") (A')
                 (A") (A") (A') (A') (A') (A') (A') (A') (A') (A")
                 (A') (A') (A') (A') (A') (A') (A') (A') (A') (A')
                 (A') (A') (A') (A') (A') (A') (A') (A") (A') (A')
                 (A') (A') (A") (A') (A') (A') (A") (A") (A') (A')
                 (A") (A") (A") (A') (A') (A') (A') (A') (A') (A')
                 (A') (A") (A') (A') (A') (A") (A') (A') (A') (A')
                 (A') (A') (A") (A") (A') (A") (A") (A") (A') (A')
                 (A') (A") (A') (A') (A') (A') (A") (A') (A") (A")
                 (A') (A') (A") (A') (A') (A") (A') (A') (A") (A")
                 (A') (A') (A") (A') (A') (A') (A') (A") (A") (A')
                 (A') (A") (A") (A') (A') (A') (A') (A') (A') (A')
                 (A") (A') (A') (A') (A') (A') (A') (A") (A") (A')
                 (A") (A") (A') (A") (A') (A') (A') (A') (A') (A')
                 (A') (A') (A') (A') (A') (A') (A') (A') (A') (A')
                 (A') (A') (A') (A') (A") (A') (A') (A')
 The electronic state is 2-A'.
 Alpha  occ. eigenvalues -- -102.57663 -10.49947 -10.44976 -10.44780 -10.44777
 Alpha  occ. eigenvalues --  -10.43921 -10.43918  -9.71989  -7.44486  -7.43844
 Alpha  occ. eigenvalues --   -7.43839  -0.89398  -0.82743  -0.73945  -0.70868
 Alpha  occ. eigenvalues --   -0.58605  -0.56056  -0.47571  -0.42292  -0.41670
 Alpha  occ. eigenvalues --   -0.38300  -0.37019  -0.36252  -0.30536  -0.29465
 Alpha  occ. eigenvalues --   -0.27827  -0.27552  -0.20403  -0.18762   0.04550
 Alpha virt. eigenvalues --    0.09742   0.10743   0.12311   0.12325   0.12335
 Alpha virt. eigenvalues --    0.12854   0.14529   0.17799   0.17818   0.18705
 Alpha virt. eigenvalues --    0.19134   0.20146   0.20609   0.21052   0.21753
 Alpha virt. eigenvalues --    0.22442   0.22923   0.23149   0.24467   0.24797
 Alpha virt. eigenvalues --    0.24847   0.25201   0.25874   0.26714   0.27196
 Alpha virt. eigenvalues --    0.27448   0.27689   0.28134   0.31187   0.32207
 Alpha virt. eigenvalues --    0.32482   0.32493   0.33829   0.34840   0.35958
 Alpha virt. eigenvalues --    0.36857   0.38761   0.39771   0.40482   0.41952
 Alpha virt. eigenvalues --    0.42909   0.45994   0.47045   0.48454   0.48609
 Alpha virt. eigenvalues --    0.57104   0.58062   0.59735   0.59759   0.61740
 Alpha virt. eigenvalues --    0.65565   0.67030   0.68382   0.69125   0.69511
 Alpha virt. eigenvalues --    0.70647   0.72314   0.74043   0.75124   0.75512
 Alpha virt. eigenvalues --    0.75790   0.81842   0.82771   0.85816   0.86200
 Alpha virt. eigenvalues --    0.88206   0.90953   0.92332   0.97661   0.97842
 Alpha virt. eigenvalues --    0.97875   0.98995   1.00224   1.01640   1.03110
 Alpha virt. eigenvalues --    1.03320   1.03945   1.04499   1.08875   1.09864
 Alpha virt. eigenvalues --    1.14800   1.16262   1.16700   1.16947   1.23857
 Alpha virt. eigenvalues --    1.28095   1.30273   1.31347   1.34060   1.40724
 Alpha virt. eigenvalues --    1.46662   1.53985   1.62862   1.63578   1.66475
 Alpha virt. eigenvalues --    1.67424   1.68759   1.71025   1.75931   1.77580
 Alpha virt. eigenvalues --    1.80164   1.81181   1.82363   1.86622   1.90596
 Alpha virt. eigenvalues --    1.90939   1.94431   2.05624   2.05711   2.05927
 Alpha virt. eigenvalues --    2.07089   2.08866   2.09680   2.09742   2.18434
 Alpha virt. eigenvalues --    2.20123   2.20355   2.34148   2.34577   2.39813
 Alpha virt. eigenvalues --    2.42975   2.46402   2.48745   2.54117   2.57553
 Alpha virt. eigenvalues --    2.60745   2.67916   2.72362   2.74704   2.81685
 Alpha virt. eigenvalues --    2.82498   2.83921   2.85966   2.86764   2.88732
 Alpha virt. eigenvalues --    2.89198   2.94564   2.94911   2.95368   3.04843
 Alpha virt. eigenvalues --    3.05496   3.07149   3.23803   3.29484   3.32675
 Alpha virt. eigenvalues --    3.44627   3.48734   3.57766   3.62935   3.69893
 Alpha virt. eigenvalues --    3.89084   4.05594   4.11540   4.24382   4.27216
 Alpha virt. eigenvalues --    4.94226  10.07567  23.67527  24.05224  24.13148
 Alpha virt. eigenvalues --   24.20105  24.25836  24.33102  26.03550  26.34132
 Alpha virt. eigenvalues --   26.83386 216.17651
  Beta  occ. eigenvalues -- -102.57655 -10.49940 -10.44878 -10.44764 -10.44761
  Beta  occ. eigenvalues --  -10.43901 -10.43897  -9.71987  -7.44476  -7.43838
  Beta  occ. eigenvalues --   -7.43833  -0.89356  -0.82657  -0.73870  -0.70755
  Beta  occ. eigenvalues --   -0.58542  -0.55952  -0.47417  -0.42228  -0.41598
  Beta  occ. eigenvalues --   -0.38282  -0.36890  -0.36221  -0.30481  -0.29411
  Beta  occ. eigenvalues --   -0.27684  -0.27536  -0.20401  -0.18694
  Beta virt. eigenvalues --    0.11841   0.12094   0.12104   0.12888   0.14511
  Beta virt. eigenvalues --    0.15216   0.16554   0.16930   0.17268   0.18558
  Beta virt. eigenvalues --    0.19269   0.19752   0.20044   0.22198   0.23083
  Beta virt. eigenvalues --    0.23150   0.24704   0.25366   0.25644   0.25769
  Beta virt. eigenvalues --    0.26750   0.27207   0.27720   0.29120   0.29958
  Beta virt. eigenvalues --    0.30852   0.31317   0.32825   0.33452   0.33999
  Beta virt. eigenvalues --    0.34775   0.35853   0.36271   0.36877   0.38408
  Beta virt. eigenvalues --    0.39481   0.40285   0.40794   0.41776   0.42139
  Beta virt. eigenvalues --    0.44395   0.46091   0.48210   0.49252   0.49321
  Beta virt. eigenvalues --    0.52348   0.58388   0.58897   0.59728   0.61703
  Beta virt. eigenvalues --    0.61966   0.66793   0.67809   0.69049   0.69969
  Beta virt. eigenvalues --    0.70495   0.71582   0.72853   0.74351   0.75052
  Beta virt. eigenvalues --    0.76245   0.76560   0.82475   0.82673   0.86727
  Beta virt. eigenvalues --    0.87783   0.88648   0.91793   0.92747   0.97716
  Beta virt. eigenvalues --    0.97849   0.98016   0.99374   1.01761   1.02920
  Beta virt. eigenvalues --    1.03124   1.03736   1.04785   1.05077   1.09069
  Beta virt. eigenvalues --    1.10342   1.14928   1.16408   1.16810   1.17068
  Beta virt. eigenvalues --    1.23917   1.28357   1.30394   1.31365   1.34148
  Beta virt. eigenvalues --    1.40955   1.46748   1.54353   1.63034   1.64156
  Beta virt. eigenvalues --    1.66688   1.68086   1.69016   1.71179   1.75984
  Beta virt. eigenvalues --    1.78285   1.80381   1.81546   1.82470   1.86812
  Beta virt. eigenvalues --    1.90718   1.91383   1.95594   2.05760   2.05823
  Beta virt. eigenvalues --    2.06058   2.07533   2.09037   2.10076   2.10132
  Beta virt. eigenvalues --    2.18853   2.20130   2.20465   2.34344   2.35929
  Beta virt. eigenvalues --    2.39979   2.43145   2.46482   2.49001   2.54184
  Beta virt. eigenvalues --    2.57725   2.60873   2.68044   2.72588   2.74774
  Beta virt. eigenvalues --    2.81951   2.83581   2.84350   2.86346   2.87375
  Beta virt. eigenvalues --    2.89067   2.89792   2.95132   2.95584   2.95684
  Beta virt. eigenvalues --    3.05075   3.05634   3.07255   3.23967   3.29656
  Beta virt. eigenvalues --    3.32933   3.44941   3.48914   3.58050   3.63142
  Beta virt. eigenvalues --    3.70086   3.89331   4.05985   4.11855   4.24619
  Beta virt. eigenvalues --    4.27496   4.94474  10.07584  23.67556  24.05278
  Beta virt. eigenvalues --   24.13176  24.20169  24.25866  24.33150  26.03618
  Beta virt. eigenvalues --   26.34172  26.83447 216.17663
          Condensed to atoms (all electrons):
               1          2          3          4          5          6
     1  C   52.825607 -38.663981  -3.446045 -24.751208  25.236243 -31.593878
     2  C  -38.663981  48.255610   3.617282  18.030123 -24.746392  25.654042
     3  C   -3.446045   3.617282  10.853580   3.616875  -3.445851   1.481396
     4  C  -24.751208  18.030123   3.616875  48.258640 -38.660596  25.653250
     5  C   25.236243 -24.746392  -3.445851 -38.660596  52.814425 -31.588046
     6  C  -31.593878  25.654042   1.481396  25.653250 -31.588046  38.637164
     7  Cl  -3.795026   3.372210  -0.178680   3.372369  -3.793881   1.298177
     8  H    5.690590  -5.539296  -0.145199  -1.949212   2.747171  -3.287510
     9  H   11.763413 -13.310338  -2.347389  -4.571583   6.373641  -7.078673
    10  H    5.356031  -5.282053  -2.816425  -5.282346   5.355687  -4.094815
    11  H    6.373012  -4.570225  -2.346760 -13.308602  11.760224  -7.076677
    12  H    2.748078  -1.949239  -0.145153  -5.540185   5.690040  -3.287263
               7          8          9         10         11         12
     1  C   -3.795026   5.690590  11.763413   5.356031   6.373012   2.748078
     2  C    3.372210  -5.539296 -13.310338  -5.282053  -4.570225  -1.949239
     3  C   -0.178680  -0.145199  -2.347389  -2.816425  -2.346760  -0.145153
     4  C    3.372369  -1.949212  -4.571583  -5.282346 -13.308602  -5.540185
     5  C   -3.793881   2.747171   6.373641   5.355687  11.760224   5.690040
     6  C    1.298177  -3.287510  -7.078673  -4.094815  -7.076677  -3.287263
     7  Cl  19.637296  -0.901734  -0.656197  -0.204949  -0.656066  -0.901894
     8  H   -0.901734   1.718431   1.618583   0.411713   0.457163   0.321108
     9  H   -0.656197   1.618583   5.866895   2.316918   1.477904   0.457300
    10  H   -0.204949   0.411713   2.316918   3.180254   2.316541   0.411748
    11  H   -0.656066   0.457163   1.477904   2.316541   5.865294   1.618546
    12  H   -0.901894   0.321108   0.457300   0.411748   1.618546   1.718784
          Atomic-Atomic Spin Densities.
               1          2          3          4          5          6
     1  C   40.749155 -38.673734  -4.306533 -22.967029  28.864065 -29.829584
     2  C  -38.673734  40.761856   4.425936  16.740460 -22.962610  25.476885
     3  C   -4.306533   4.425936   4.102223   4.425708  -4.306153   3.086482
     4  C  -22.967029  16.740460   4.425708  40.764402 -38.670335  25.475956
     5  C   28.864065 -22.962610  -4.306153 -38.670335  40.738650 -29.824403
     6  C  -29.829584  25.476885   3.086482  25.475956 -29.824403  27.078787
     7  Cl  -3.762656   3.209822  -0.163906   3.210005  -3.761391   2.112165
     8  H    5.199476  -5.568893  -0.161389  -1.945154   2.834300  -3.151701
     9  H   11.797635 -13.643173  -2.341293  -4.575350   6.338266  -7.102391
    10  H    5.346913  -5.279498  -3.084103  -5.279800   5.346570  -4.090858
    11  H    6.337653  -4.573981  -2.340709 -13.641373  11.794403  -7.100374
    12  H    2.835171  -1.945187  -0.161330  -5.569807   5.199036  -3.151517
               7          8          9         10         11         12
     1  C   -3.762656   5.199476  11.797635   5.346913   6.337653   2.835171
     2  C    3.209822  -5.568893 -13.643173  -5.279498  -4.573981  -1.945187
     3  C   -0.163906  -0.161389  -2.341293  -3.084103  -2.340709  -0.161330
     4  C    3.210005  -1.945154  -4.575350  -5.279800 -13.641373  -5.569807
     5  C   -3.761391   2.834300   6.338266   5.346570  11.794403   5.199036
     6  C    2.112165  -3.151701  -7.102391  -4.090858  -7.100374  -3.151517
     7  Cl   2.314697  -0.906560  -0.651550  -0.203183  -0.651421  -0.906711
     8  H   -0.906560   1.226775   1.626497   0.411015   0.455997   0.322198
     9  H   -0.651550   1.626497   5.407164   2.316453   1.478488   0.456133
    10  H   -0.203183   0.411015   2.316453   2.780259   2.316073   0.411051
    11  H   -0.651421   0.455997   1.478488   2.316073   5.405615   1.626449
    12  H   -0.906711   0.322198   0.456133   0.411051   1.626449   1.227166
 Mulliken charges and spin densities:
               1          2
     1  C   -1.742835   1.590531
     2  C    1.132255  -2.032117
     3  C    1.302368  -0.825066
     4  C    1.132476  -2.032316
     5  C   -1.742665   1.590398
     6  C    1.282832  -1.020553
     7  Cl   0.408377  -0.160689
     8  H   -0.141808   0.342562
     9  H   -0.910473   1.106881
    10  H   -0.668304   0.990894
    11  H   -0.910354   1.106821
    12  H   -0.141869   0.342652
 Sum of Mulliken charges =  -1.00000   1.00000
 Mulliken charges and spin densities with hydrogens summed into heavy atoms:
               1          2
     1  C   -1.884643   1.933094
     2  C    0.221782  -0.925236
     3  C    0.634064   0.165828
     4  C    0.222122  -0.925495
     5  C   -1.884534   1.933050
     6  C    1.282832  -1.020553
     7  Cl   0.408377  -0.160689
 Electronic spatial extent (au):  <R**2>=           1004.8277
 Charge=             -1.0000 electrons
 Dipole moment (field-independent basis, Debye):
    X=             -0.0009    Y=             11.5502    Z=              0.0000  Tot=             11.5502
 Quadrupole moment (field-independent basis, Debye-Ang):
   XX=            -86.7846   YY=           -116.6222   ZZ=            -68.3665
   XY=              0.0011   XZ=              0.0000   YZ=             -0.0000
 Traceless Quadrupole moment (field-independent basis, Debye-Ang):
   XX=              3.8065   YY=            -26.0311   ZZ=             22.2246
   XY=              0.0011   XZ=              0.0000   YZ=             -0.0000
 Octapole moment (field-independent basis, Debye-Ang**2):
  XXX=             -0.0181  YYY=            323.5327  ZZZ=              0.0000  XYY=             -0.0048
  XXY=            100.6244  XXZ=              0.0000  XZZ=             -0.0023  YZZ=             48.4907
  YYZ=              0.0000  XYZ=             -0.0000
 Hexadecapole moment (field-independent basis, Debye-Ang**3):
 XXXX=          -1128.3540 YYYY=          -2653.6287 ZZZZ=           -211.2708 XXXY=              0.0171
 XXXZ=              0.0000 YYYX=              0.0112 YYYZ=             -0.0000 ZZZX=              0.0000
 ZZZY=             -0.0000 XXYY=           -630.0831 XXZZ=           -192.9824 YYZZ=           -362.4860
 XXYZ=             -0.0000 YYXZ=              0.0000 ZZXY=              0.0013
 N-N= 3.140065812266D+02 E-N=-2.265358352779D+03  KE= 6.895071175114D+02
 Symmetry A'   KE= 6.373051912219D+02
 Symmetry A"   KE= 5.220192628949D+01
 Symmetry A'   SP= 1.000000000000D+00
 Symmetry A"   SP= 2.622725204604D-14
                          Isotropic Fermi Contact Couplings
        Atom                 a.u.       MegaHertz       Gauss      10(-4) cm-1
     1  C(13)              0.01297      14.58404       5.20395       4.86471
     2  C(13)              0.01258      14.13683       5.04437       4.71554
     3  C(13)              0.07238      81.36980      29.03477      27.14204
     4  C(13)              0.01258      14.14335       5.04670       4.71771
     5  C(13)              0.01298      14.58780       5.20529       4.86596
     6  C(13)              0.00748       8.40755       3.00002       2.80446
     7  Cl(35)            -0.00035      -0.15254      -0.05443      -0.05088
     8  H(1)               0.00038       1.70346       0.60784       0.56821
     9  H(1)               0.00023       1.02546       0.36591       0.34206
    10  H(1)              -0.00142      -6.34614      -2.26446      -2.11684
    11  H(1)               0.00023       1.02394       0.36537       0.34155
    12  H(1)               0.00038       1.70371       0.60792       0.56829
 --------------------------------------------------------
       Center         ----  Spin Dipole Couplings  ----
                      3XX-RR        3YY-RR        3ZZ-RR
 --------------------------------------------------------
     1   Atom        0.002062     -0.001438     -0.000624
     2   Atom        0.013496     -0.005227     -0.008269
     3   Atom       -0.029825      0.053322     -0.023497
     4   Atom        0.013503     -0.005230     -0.008273
     5   Atom        0.002065     -0.001439     -0.000626
     6   Atom        0.000543      0.000812     -0.001355
     7   Atom       -0.003887      0.008584     -0.004696
     8   Atom        0.001252      0.000771     -0.002023
     9   Atom        0.005184     -0.000019     -0.005165
    10   Atom       -0.004945      0.012724     -0.007779
    11   Atom        0.005185     -0.000019     -0.005166
    12   Atom        0.001253      0.000771     -0.002024
 --------------------------------------------------------
                        XY            XZ            YZ
 --------------------------------------------------------
     1   Atom       -0.001159      0.000000     -0.000000
     2   Atom        0.005540      0.000000     -0.000000
     3   Atom        0.000002      0.000000     -0.000000
     4   Atom       -0.005545      0.000000      0.000000
     5   Atom        0.001160      0.000000      0.000000
     6   Atom       -0.000000      0.000000      0.000000
     7   Atom        0.000001     -0.000000     -0.000000
     8   Atom       -0.001675      0.000000     -0.000000
     9   Atom        0.003866      0.000000     -0.000000
    10   Atom        0.000000      0.000000     -0.000000
    11   Atom       -0.003868      0.000000      0.000000
    12   Atom        0.001675     -0.000000      0.000000
 --------------------------------------------------------


 ---------------------------------------------------------------------------------
              Anisotropic Spin Dipole Couplings in Principal Axis System
 ---------------------------------------------------------------------------------

       Atom             a.u.   MegaHertz   Gauss  10(-4) cm-1        Axes

              Baa    -0.0018    -0.240    -0.086    -0.080  0.2883  0.9575  0.0000
     1 C(13)  Bbb    -0.0006    -0.084    -0.030    -0.028  0.0000  0.0000  1.0000
              Bcc     0.0024     0.324     0.115     0.108  0.9575 -0.2883  0.0000
 
              Baa    -0.0083    -1.110    -0.396    -0.370  0.0000  0.0000  1.0000
     2 C(13)  Bbb    -0.0067    -0.905    -0.323    -0.302 -0.2640  0.9645 -0.0000
              Bcc     0.0150     2.014     0.719     0.672  0.9645  0.2640  0.0000
 
              Baa    -0.0298    -4.002    -1.428    -1.335  1.0000 -0.0000  0.0000
     3 C(13)  Bbb    -0.0235    -3.153    -1.125    -1.052  0.0000  0.0000  1.0000
              Bcc     0.0533     7.155     2.553     2.387  0.0000  1.0000 -0.0000
 
              Baa    -0.0083    -1.110    -0.396    -0.370  0.0000  0.0000  1.0000
     4 C(13)  Bbb    -0.0067    -0.906    -0.323    -0.302  0.2641  0.9645 -0.0000
              Bcc     0.0150     2.016     0.719     0.672  0.9645 -0.2641 -0.0000
 
              Baa    -0.0018    -0.240    -0.086    -0.080 -0.2883  0.9575  0.0000
     5 C(13)  Bbb    -0.0006    -0.084    -0.030    -0.028  0.0000  0.0000  1.0000
              Bcc     0.0024     0.324     0.116     0.108  0.9575  0.2883 -0.0000
 
              Baa    -0.0014    -0.182    -0.065    -0.061  0.0000  0.0000  1.0000
     6 C(13)  Bbb     0.0005     0.073     0.026     0.024  1.0000  0.0006  0.0000
              Bcc     0.0008     0.109     0.039     0.036 -0.0006  1.0000 -0.0000
 
              Baa    -0.0047    -0.246    -0.088    -0.082  0.0000  0.0000  1.0000
     7 Cl(35) Bbb    -0.0039    -0.203    -0.073    -0.068  1.0000 -0.0001  0.0000
              Bcc     0.0086     0.449     0.160     0.150  0.0001  1.0000 -0.0000
 
              Baa    -0.0020    -1.079    -0.385    -0.360  0.0000  0.0000  1.0000
     8 H(1)   Bbb    -0.0007    -0.363    -0.130    -0.121  0.6549  0.7557 -0.0000
              Bcc     0.0027     1.442     0.515     0.481  0.7557 -0.6549  0.0000
 
              Baa    -0.0052    -2.756    -0.983    -0.919  0.0000  0.0000  1.0000
     9 H(1)   Bbb    -0.0021    -1.108    -0.396    -0.370 -0.4700  0.8827  0.0000
              Bcc     0.0072     3.864     1.379     1.289  0.8827  0.4700  0.0000
 
              Baa    -0.0078    -4.151    -1.481    -1.384  0.0000  0.0000  1.0000
    10 H(1)   Bbb    -0.0049    -2.639    -0.942    -0.880  1.0000 -0.0000  0.0000
              Bcc     0.0127     6.789     2.423     2.265  0.0000  1.0000 -0.0000
 
              Baa    -0.0052    -2.756    -0.984    -0.919  0.0000  0.0000  1.0000
    11 H(1)   Bbb    -0.0021    -1.109    -0.396    -0.370  0.4700  0.8827  0.0000
              Bcc     0.0072     3.865     1.379     1.289  0.8827 -0.4700  0.0000
 
              Baa    -0.0020    -1.080    -0.385    -0.360  0.0000  0.0000  1.0000
    12 H(1)   Bbb    -0.0007    -0.363    -0.130    -0.121 -0.6548  0.7558 -0.0000
              Bcc     0.0027     1.443     0.515     0.481  0.7558  0.6548 -0.0000
 

 ---------------------------------------------------------------------------------

 Calling FoFJK, ICntrl=      2127 FMM=F ISym2X=1 I1Cent= 0 IOpClX= 1 NMat=1 NMatS=1 NMatT=0.
 ***** Axes restored to original set *****
 -------------------------------------------------------------------
 Center     Atomic                   Forces (Hartrees/Bohr)
 Number     Number              X              Y              Z
 -------------------------------------------------------------------
      1        6          -0.000905418   -0.003480896   -0.000000000
      2        6           0.008000289    0.010296038    0.000000000
      3        6           0.048746851    0.029954114   -0.000000000
      4        6           0.012858814    0.002451290   -0.000000000
      5        6          -0.003508956    0.000696494    0.000000000
      6        6           0.020208511    0.012416066   -0.000000000
      7       17          -0.012838817   -0.007890090    0.000000000
      8        1           0.008434362   -0.003735423   -0.000000000
      9        1          -0.000428872   -0.006913225   -0.000000000
     10        1          -0.074614999   -0.045856238   -0.000000000
     11        1          -0.006427349    0.002776033    0.000000000
     12        1           0.000475585    0.009285838    0.000000000
 -------------------------------------------------------------------
 Cartesian Forces:  Max     0.074614999 RMS     0.018535980

 GradGradGradGradGradGradGradGradGradGradGradGradGradGradGradGradGradGrad
 Berny optimization.
 FormGI is forming the generalized inverse of G from B-inverse, IUseBI=4.
 Internal  Forces:  Max     0.087579636 RMS     0.012907210
 Search for a local minimum.
 Step number   1 out of a maximum of   64
 All quantities printed in internal units (Hartrees-Bohrs-Radians)
 Mixed Optimization -- RFO/linear search
 Second derivative matrix not updated -- first step.
 ITU=  0
     Eigenvalues ---    0.02102   0.02107   0.02116   0.02117   0.02119
     Eigenvalues ---    0.02124   0.02125   0.02129   0.02130   0.14726
     Eigenvalues ---    0.16000   0.16000   0.16000   0.16000   0.16000
     Eigenvalues ---    0.22000   0.22000   0.23498   0.25000   0.33021
     Eigenvalues ---    0.33823   0.33837   0.33866   0.33879   0.41802
     Eigenvalues ---    0.41879   0.45848   0.45873   0.46034   0.46253
 RFO step:  Lambda=-4.37074732D-02 EMin= 2.10196981D-02
 Linear search not attempted -- first point.
 Maximum step size (   0.300) exceeded in Quadratic search.
    -- Step size scaled by   0.639
 Iteration  1 RMS(Cart)=  0.03215692 RMS(Int)=  0.01266301
 Iteration  2 RMS(Cart)=  0.01212510 RMS(Int)=  0.00001673
 Iteration  3 RMS(Cart)=  0.00000000 RMS(Int)=  0.00001673
 ClnCor:  largest displacement from symmetrization is 1.81D-08 for atom     9.
 Variable       Old X    -DE/DX   Delta X   Delta X   Delta X     New X
                                 (Linear)    (Quad)   (Total)
    R1        2.63847  -0.00702   0.00000  -0.00886  -0.00886   2.62961
    R2        2.64178  -0.00738   0.00000  -0.00906  -0.00909   2.63269
    R3        2.07534  -0.00920   0.00000  -0.01537  -0.01537   2.05997
    R4        2.64373  -0.01225   0.00000  -0.01591  -0.01589   2.62784
    R5        2.07606  -0.00690   0.00000  -0.01153  -0.01153   2.06453
    R6        2.64373  -0.01225   0.00000  -0.01592  -0.01589   2.62784
    R7        2.62701  -0.08758   0.00000  -0.29304  -0.29304   2.33398
    R8        2.63848  -0.00702   0.00000  -0.00887  -0.00887   2.62961
    R9        2.07629  -0.00697   0.00000  -0.01166  -0.01166   2.06463
   R10        2.64178  -0.00739   0.00000  -0.00906  -0.00909   2.63269
   R11        2.07557  -0.00927   0.00000  -0.01550  -0.01550   2.06007
   R12        3.26015   0.01507   0.00000   0.02575   0.02575   3.28590
    A1        2.07243   0.00036   0.00000   0.00155   0.00153   2.07396
    A2        2.11547  -0.00087   0.00000  -0.00293  -0.00292   2.11255
    A3        2.09528   0.00051   0.00000   0.00138   0.00139   2.09668
    A4        2.12827  -0.00659   0.00000  -0.01650  -0.01647   2.11180
    A5        2.07692   0.00263   0.00000   0.00615   0.00614   2.08306
    A6        2.07800   0.00397   0.00000   0.01035   0.01033   2.08833
    A7        2.05410   0.01118   0.00000   0.02593   0.02599   2.08009
    A8        2.11454  -0.00559   0.00000  -0.01297  -0.01299   2.10155
    A9        2.11454  -0.00559   0.00000  -0.01297  -0.01299   2.10155
   A10        2.12827  -0.00659   0.00000  -0.01649  -0.01647   2.11180
   A11        2.07800   0.00396   0.00000   0.01035   0.01033   2.08833
   A12        2.07692   0.00263   0.00000   0.00615   0.00613   2.08305
   A13        2.07243   0.00036   0.00000   0.00155   0.00153   2.07396
   A14        2.11547  -0.00087   0.00000  -0.00293  -0.00292   2.11255
   A15        2.09528   0.00051   0.00000   0.00138   0.00139   2.09668
   A16        2.11088   0.00129   0.00000   0.00395   0.00390   2.11477
   A17        2.08615  -0.00064   0.00000  -0.00197  -0.00195   2.08421
   A18        2.08616  -0.00064   0.00000  -0.00197  -0.00195   2.08421
    D1        0.00000  -0.00000   0.00000  -0.00000  -0.00000   0.00000
    D2        3.14159  -0.00000   0.00000  -0.00000   0.00000   3.14159
    D3        3.14159   0.00000   0.00000   0.00000   0.00000   3.14159
    D4       -0.00000   0.00000   0.00000   0.00000   0.00000   0.00000
    D5        0.00000   0.00000   0.00000   0.00000   0.00000   0.00000
    D6        3.14159   0.00000   0.00000   0.00000   0.00000   3.14159
    D7        3.14159  -0.00000   0.00000  -0.00000   0.00000   3.14159
    D8       -0.00000  -0.00000   0.00000  -0.00000   0.00000   0.00000
    D9       -0.00000  -0.00000   0.00000  -0.00000   0.00000   0.00000
   D10        3.14159   0.00000   0.00000   0.00000   0.00000   3.14159
   D11        3.14159  -0.00000   0.00000  -0.00000   0.00000   3.14159
   D12        0.00000   0.00000   0.00000   0.00000  -0.00000   0.00000
   D13        0.00000  -0.00000   0.00000   0.00000  -0.00000   0.00000
   D14        3.14159   0.00000   0.00000   0.00000   0.00000   3.14159
   D15        3.14159  -0.00000   0.00000   0.00000   0.00000   3.14159
   D16       -0.00000  -0.00000   0.00000  -0.00000   0.00000   0.00000
   D17        0.00000  -0.00000   0.00000  -0.00000   0.00000   0.00000
   D18        3.14159   0.00000   0.00000  -0.00000   0.00000   3.14159
   D19        3.14159  -0.00000   0.00000   0.00000   0.00000   3.14159
   D20       -0.00000  -0.00000   0.00000  -0.00000   0.00000   0.00000
   D21       -0.00000   0.00000   0.00000  -0.00000   0.00000   0.00000
   D22        3.14159   0.00000   0.00000  -0.00000   0.00000   3.14159
   D23        3.14159  -0.00000   0.00000  -0.00000   0.00000   3.14159
   D24        0.00000   0.00000   0.00000  -0.00000   0.00000   0.00000
         Item               Value     Threshold  Converged?
 Maximum Force            0.087580     0.000450     NO 
 RMS     Force            0.012907     0.000300     NO 
 Maximum Displacement     0.259503     0.001800     NO 
 RMS     Displacement     0.044014     0.001200     NO 
 Predicted change in Energy=-2.097239D-02
 GradGradGradGradGradGradGradGradGradGradGradGradGradGradGradGradGradGrad

                          Input orientation:                          
 ---------------------------------------------------------------------
 Center     Atomic      Atomic             Coordinates (Angstroms)
 Number     Number       Type             X           Y           Z
 ---------------------------------------------------------------------
      1          6           0       -3.167031    0.220711    0.000000
      2          6           0       -1.974086    0.937117    0.000000
      3          6           0       -0.746454    0.283919    0.000000
      4          6           0       -0.718213   -1.106385   -0.000000
      5          6           0       -1.896221   -1.847093   -0.000000
      6          6           0       -3.114586   -1.171461    0.000000
      7         17           0       -4.596011   -2.081897    0.000000
      8          1           0       -4.129762    0.732029    0.000000
      9          1           0       -2.005278    2.029173    0.000000
     10          1           0        0.305801    0.930602    0.000000
     11          1           0        0.242044   -1.627520   -0.000000
     12          1           0       -1.874903   -2.937026   -0.000000
 ---------------------------------------------------------------------
                    Distance matrix (angstroms):
                    1          2          3          4          5
     1  C    0.000000
     2  C    1.391529   0.000000
     3  C    2.421401   1.390592   0.000000
     4  C    2.785299   2.398566   1.390591   0.000000
     5  C    2.427091   2.785299   2.421400   1.391529   0.000000
     6  C    1.393160   2.397257   2.779601   2.397257   1.393159
     7  Cl   2.709980   3.998617   4.518426   3.998617   2.709981
     8  H    1.090091   2.165410   3.412854   3.875363   3.411829
     9  H    2.149466   1.092501   2.151870   3.389434   3.877800
    10  H    3.544644   2.279896   1.235087   2.279895   3.544643
    11  H    3.877854   3.389483   2.151913   1.092554   2.149509
    12  H    3.411876   3.875413   3.412900   2.165451   1.090141
                    6          7          8          9         10
     6  C    0.000000
     7  Cl   1.738825   0.000000
     8  H    2.157280   2.852292   0.000000
     9  H    3.387421   4.859300   2.489180   0.000000
    10  H    4.014688   5.753513   4.440006   2.558895   0.000000
    11  H    3.387470   4.859345   4.967913   4.292070   2.558917
    12  H    2.157321   2.852311   4.306548   4.967910   4.440047
                   11         12
    11  H    0.000000
    12  H    2.489230   0.000000
 Stoichiometry    C6H5Cl(1-,2)
 Framework group  CS[SG(C6H5Cl)]
 Deg. of freedom    21
 Full point group                 CS      NOp   2
 Largest Abelian subgroup         CS      NOp   2
 Largest concise Abelian subgroup C1      NOp   1
                         Standard orientation:                         
 ---------------------------------------------------------------------
 Center     Atomic      Atomic             Coordinates (Angstroms)
 Number     Number       Type             X           Y           Z
 ---------------------------------------------------------------------
      1          6           0       -1.213547   -0.171195    0.000000
      2          6           0       -1.199288   -1.562651    0.000000
      3          6           0       -0.000006   -2.266547    0.000000
      4          6           0        1.199278   -1.562656   -0.000000
      5          6           0        1.213544   -0.171200   -0.000000
      6          6           0        0.000000    0.513054   -0.000000
      7         17           0        0.000002    2.251879   -0.000000
      8          1           0       -2.153253    0.381302    0.000000
      9          1           0       -2.146018   -2.107868    0.000000
     10          1           0       -0.000007   -3.501633    0.000000
     11          1           0        2.146052   -2.107903   -0.000000
     12          1           0        2.153295    0.381317   -0.000000
 ---------------------------------------------------------------------
 Rotational constants (GHZ):           5.7110073           1.5679917           1.2302257
 Standard basis: 6-311++G(d,p) (5D, 7F)
 There are   155 symmetry adapted cartesian basis functions of A'  symmetry.
 There are    49 symmetry adapted cartesian basis functions of A"  symmetry.
 There are   148 symmetry adapted basis functions of A'  symmetry.
 There are    49 symmetry adapted basis functions of A"  symmetry.
   197 basis functions,   314 primitive gaussians,   204 cartesian basis functions
    30 alpha electrons       29 beta electrons
       nuclear repulsion energy       315.1141343256 Hartrees.
 NAtoms=   12 NActive=   12 NUniq=   12 SFac= 1.00D+00 NAtFMM=   60 NAOKFM=F Big=F
 Integral buffers will be    131072 words long.
 Raffenetti 2 integral format.
 Two-electron integral symmetry is turned on.
 One-electron integrals computed using PRISM.
 NBasis=   197 RedAO= T EigKep=  1.09D-06  NBF=   148    49
 NBsUse=   197 1.00D-06 EigRej= -1.00D+00 NBFU=   148    49
 Initial guess from the checkpoint file:  "frequency_chks/1ClBzAnionRadical_Freq.chk"
 B after Tr=    -0.000000    0.000000   -0.000000
         Rot=    1.000000    0.000000   -0.000000   -0.000002 Ang=  -0.00 deg.
 Initial guess orbital symmetries:
 Alpha Orbitals:
       Occupied  (A') (A') (A') (A') (A') (A') (A') (A') (A') (A")
                 (A') (A') (A') (A') (A') (A') (A') (A') (A') (A')
                 (A') (A') (A") (A') (A") (A') (A') (A") (A") (A')
       Virtual   (A') (A') (A') (A") (A") (A') (A') (A") (A') (A')
                 (A') (A") (A") (A') (A') (A') (A') (A") (A') (A')
                 (A") (A") (A') (A') (A") (A') (A') (A') (A') (A')
                 (A') (A") (A') (A') (A') (A') (A') (A') (A') (A')
                 (A') (A') (A') (A') (A') (A') (A") (A') (A') (A')
                 (A') (A") (A') (A') (A') (A") (A") (A') (A') (A")
                 (A") (A") (A') (A') (A') (A') (A') (A') (A') (A')
                 (A") (A') (A') (A') (A") (A') (A') (A') (A') (A')
                 (A') (A") (A") (A') (A") (A") (A") (A') (A') (A')
                 (A") (A') (A') (A') (A') (A") (A') (A") (A") (A')
                 (A') (A") (A') (A') (A") (A') (A') (A") (A") (A')
                 (A') (A") (A') (A') (A') (A') (A") (A") (A') (A')
                 (A") (A") (A') (A') (A') (A') (A') (A') (A') (A")
                 (A') (A') (A') (A') (A') (A') (A') (A") (A") (A")
                 (A") (A') (A") (A') (A') (A') (A') (A') (A') (A')
                 (A') (A') (A') (A') (A') (A') (A') (A') (A') (A')
                 (A') (A') (A') (A") (A') (A') (A')
 Beta  Orbitals:
       Occupied  (A') (A') (A') (A') (A') (A') (A') (A') (A') (A")
                 (A') (A') (A') (A') (A') (A') (A') (A') (A') (A')
                 (A') (A') (A") (A') (A") (A') (A') (A") (A")
       Virtual   (A') (A") (A") (A') (A') (A') (A") (A') (A') (A')
                 (A") (A') (A") (A') (A") (A') (A') (A') (A") (A')
                 (A") (A") (A') (A') (A') (A') (A') (A') (A') (A")
                 (A') (A') (A') (A') (A') (A') (A') (A') (A') (A')
                 (A') (A') (A') (A') (A') (A') (A') (A") (A') (A')
                 (A') (A') (A") (A') (A') (A') (A") (A") (A') (A')
                 (A") (A") (A") (A') (A') (A') (A') (A') (A') (A')
                 (A') (A") (A') (A') (A') (A") (A') (A') (A') (A')
                 (A') (A') (A") (A") (A') (A") (A") (A") (A') (A')
                 (A') (A") (A') (A') (A') (A') (A") (A') (A") (A")
                 (A') (A') (A") (A') (A') (A") (A') (A') (A") (A")
                 (A') (A') (A") (A') (A') (A') (A') (A") (A") (A')
                 (A') (A") (A") (A') (A') (A') (A') (A') (A') (A')
                 (A") (A') (A') (A') (A') (A') (A') (A") (A") (A')
                 (A") (A") (A') (A") (A') (A') (A') (A') (A') (A')
                 (A') (A') (A') (A') (A') (A') (A') (A') (A') (A')
                 (A') (A') (A') (A') (A") (A') (A') (A')
 Initial guess <Sx>= 0.0000 <Sy>= 0.0000 <Sz>= 0.5000 <S**2>= 0.7513 S= 0.5006
 ExpMin= 3.60D-02 ExpMax= 1.06D+05 ExpMxC= 3.62D+03 IAcc=3 IRadAn=         5 AccDes= 0.00D+00
 Harris functional with IExCor= 1009 and IRadAn=       5 diagonalized for initial guess.
 HarFok:  IExCor= 1009 AccDes= 0.00D+00 IRadAn=         5 IDoV= 1 UseB2=F ITyADJ=14
 ICtDFT=  3500011 ScaDFX=  1.000000  1.000000  1.000000  1.000000
 FoFCou: FMM=F IPFlag=           0 FMFlag=      100000 FMFlg1=           0
         NFxFlg=           0 DoJE=T BraDBF=F KetDBF=T FulRan=T
         wScrn=  0.000000 ICntrl=       500 IOpCl=  0 I1Cent=   200000004 NGrid=           0
         NMat0=    1 NMatS0=      1 NMatT0=    0 NMatD0=    1 NMtDS0=    0 NMtDT0=    0
 Petite list used in FoFCou.
 Keep R1 and R2 ints in memory in symmetry-blocked form, NReq=304090353.
 Requested convergence on RMS density matrix=1.00D-08 within 128 cycles.
 Requested convergence on MAX density matrix=1.00D-06.
 Requested convergence on             energy=1.00D-06.
 No special actions if energy rises.
 SCF Done:  E(UM062X) =  -691.759690739     A.U. after   43 cycles
            NFock= 43  Conv=0.25D-08     -V/T= 2.0030
 <Sx>= 0.0000 <Sy>= 0.0000 <Sz>= 0.5000 <S**2>= 0.7514 S= 0.5007
 <L.S>=  0.00000000000    
 Annihilation of the first spin contaminant:
 S**2 before annihilation     0.7514,   after     0.7500
 Calling FoFJK, ICntrl=      2127 FMM=F ISym2X=1 I1Cent= 0 IOpClX= 1 NMat=1 NMatS=1 NMatT=0.
 ***** Axes restored to original set *****
 -------------------------------------------------------------------
 Center     Atomic                   Forces (Hartrees/Bohr)
 Number     Number              X              Y              Z
 -------------------------------------------------------------------
      1        6          -0.003054689   -0.002458066   -0.000000000
      2        6           0.002580301    0.007374517    0.000000000
      3        6           0.047960389    0.029474776   -0.000000000
      4        6           0.007773993   -0.001045583   -0.000000000
      5        6          -0.003571848   -0.001647242    0.000000000
      6        6           0.012448997    0.007650218   -0.000000000
      7       17          -0.007035343   -0.004323725   -0.000000000
      8        1           0.004037348   -0.001863034   -0.000000000
      9        1          -0.000263450   -0.004468367   -0.000000000
     10        1          -0.056900967   -0.034969463   -0.000000000
     11        1          -0.004135514    0.001799601    0.000000000
     12        1           0.000160783    0.004476368    0.000000000
 -------------------------------------------------------------------
 Cartesian Forces:  Max     0.056900967 RMS     0.015041484

 GradGradGradGradGradGradGradGradGradGradGradGradGradGradGradGradGradGrad
 Berny optimization.
 Using GEDIIS/GDIIS optimizer.
 FormGI is forming the generalized inverse of G from B-inverse, IUseBI=4.
 Internal  Forces:  Max     0.066787599 RMS     0.009355010
 Search for a local minimum.
 Step number   2 out of a maximum of   64
 All quantities printed in internal units (Hartrees-Bohrs-Radians)
 Mixed Optimization -- RFO/linear search
 Update second derivatives using D2CorX and points    1    2
 DE= -2.52D-02 DEPred=-2.10D-02 R= 1.20D+00
 TightC=F SS=  1.41D+00  RLast= 3.00D-01 DXNew= 5.0454D-01 9.0000D-01
 Trust test= 1.20D+00 RLast= 3.00D-01 DXMaxT set to 5.05D-01
 ITU=  1  0
 Use linear search instead of GDIIS.
     Eigenvalues ---    0.02102   0.02107   0.02116   0.02117   0.02119
     Eigenvalues ---    0.02124   0.02125   0.02129   0.02130   0.07119
     Eigenvalues ---    0.16000   0.16000   0.16000   0.16000   0.16006
     Eigenvalues ---    0.22000   0.22682   0.23483   0.25000   0.33099
     Eigenvalues ---    0.33787   0.33831   0.33873   0.34091   0.41832
     Eigenvalues ---    0.42174   0.45846   0.46033   0.46127   0.48108
 RFO step:  Lambda=-8.53193878D-04 EMin= 2.10196981D-02
 Quartic linear search produced a step of  0.91835.
 Iteration  1 RMS(Cart)=  0.02631889 RMS(Int)=  0.01502393
 Iteration  2 RMS(Cart)=  0.01438389 RMS(Int)=  0.00001164
 Iteration  3 RMS(Cart)=  0.00000002 RMS(Int)=  0.00001164
 ClnCor:  largest displacement from symmetrization is 5.04D-10 for atom    10.
 Variable       Old X    -DE/DX   Delta X   Delta X   Delta X     New X
                                 (Linear)    (Quad)   (Total)
    R1        2.62961  -0.00177  -0.00814   0.00883   0.00070   2.63031
    R2        2.63269  -0.00385  -0.00834   0.00033  -0.00803   2.62466
    R3        2.05997  -0.00444  -0.01412   0.00555  -0.00856   2.05141
    R4        2.62784  -0.00292  -0.01459   0.01706   0.00249   2.63033
    R5        2.06453  -0.00446  -0.01059  -0.00222  -0.01281   2.05171
    R6        2.62784  -0.00292  -0.01460   0.01707   0.00250   2.63033
    R7        2.33398  -0.06679  -0.26911  -0.04129  -0.31040   2.02357
    R8        2.62961  -0.00177  -0.00814   0.00885   0.00070   2.63031
    R9        2.06463  -0.00449  -0.01071  -0.00216  -0.01288   2.05175
   R10        2.63269  -0.00385  -0.00835   0.00034  -0.00803   2.62466
   R11        2.06007  -0.00447  -0.01423   0.00561  -0.00862   2.05145
   R12        3.28590   0.00826   0.02365  -0.00389   0.01976   3.30567
    A1        2.07396  -0.00023   0.00140  -0.00567  -0.00428   2.06967
    A2        2.11255  -0.00014  -0.00268   0.00559   0.00292   2.11547
    A3        2.09668   0.00037   0.00128   0.00007   0.00136   2.09804
    A4        2.11180  -0.00304  -0.01513   0.01272  -0.00239   2.10941
    A5        2.08306   0.00112   0.00564  -0.00551   0.00011   2.08317
    A6        2.08833   0.00193   0.00949  -0.00720   0.00228   2.09061
    A7        2.08009   0.00434   0.02387  -0.02173   0.00217   2.08226
    A8        2.10155  -0.00217  -0.01193   0.01086  -0.00109   2.10046
    A9        2.10155  -0.00217  -0.01193   0.01087  -0.00109   2.10046
   A10        2.11180  -0.00304  -0.01512   0.01271  -0.00239   2.10941
   A11        2.08833   0.00192   0.00949  -0.00720   0.00228   2.09061
   A12        2.08305   0.00112   0.00563  -0.00551   0.00011   2.08317
   A13        2.07396  -0.00023   0.00140  -0.00567  -0.00429   2.06967
   A14        2.11255  -0.00014  -0.00268   0.00560   0.00292   2.11548
   A15        2.09668   0.00037   0.00128   0.00008   0.00136   2.09804
   A16        2.11477   0.00219   0.00358   0.00763   0.01118   2.12595
   A17        2.08421  -0.00110  -0.00179  -0.00382  -0.00559   2.07862
   A18        2.08421  -0.00110  -0.00179  -0.00382  -0.00559   2.07862
    D1        0.00000  -0.00000   0.00000   0.00000   0.00000   0.00000
    D2        3.14159   0.00000   0.00000   0.00000   0.00000   3.14159
    D3        3.14159  -0.00000   0.00000  -0.00000   0.00000   3.14159
    D4       -0.00000   0.00000   0.00000  -0.00000   0.00000   0.00000
    D5        0.00000  -0.00000   0.00000   0.00000  -0.00000   0.00000
    D6        3.14159  -0.00000   0.00000  -0.00000   0.00000   3.14159
    D7        3.14159   0.00000   0.00000   0.00000   0.00000   3.14159
    D8       -0.00000  -0.00000   0.00000   0.00000   0.00000   0.00000
    D9        0.00000  -0.00000   0.00000  -0.00000   0.00000   0.00000
   D10        3.14159   0.00000   0.00000   0.00000   0.00000   3.14159
   D11        3.14159   0.00000   0.00000  -0.00000   0.00000   3.14159
   D12       -0.00000   0.00000   0.00000   0.00000   0.00000   0.00000
   D13       -0.00000   0.00000   0.00000   0.00000   0.00000   0.00000
   D14        3.14159   0.00000   0.00000   0.00000   0.00000   3.14159
   D15        3.14159  -0.00000   0.00000  -0.00000   0.00000   3.14159
   D16        0.00000  -0.00000   0.00000   0.00000   0.00000   0.00000
   D17        0.00000   0.00000   0.00000   0.00000   0.00000   0.00000
   D18        3.14159   0.00000   0.00000   0.00000   0.00000   3.14159
   D19        3.14159  -0.00000   0.00000  -0.00000   0.00000   3.14159
   D20        0.00000  -0.00000   0.00000   0.00000  -0.00000   0.00000
   D21       -0.00000  -0.00000   0.00000  -0.00000   0.00000   0.00000
   D22        3.14159   0.00000   0.00000   0.00000   0.00000   3.14159
   D23        3.14159  -0.00000   0.00000  -0.00000   0.00000   3.14159
   D24        0.00000  -0.00000   0.00000  -0.00000   0.00000   0.00000
         Item               Value     Threshold  Converged?
 Maximum Force            0.066788     0.000450     NO 
 RMS     Force            0.009355     0.000300     NO 
 Maximum Displacement     0.242276     0.001800     NO 
 RMS     Displacement     0.040603     0.001200     NO 
 Predicted change in Energy=-1.768135D-02
 GradGradGradGradGradGradGradGradGradGradGradGradGradGradGradGradGradGrad

                          Input orientation:                          
 ---------------------------------------------------------------------
 Center     Atomic      Atomic             Coordinates (Angstroms)
 Number     Number       Type             X           Y           Z
 ---------------------------------------------------------------------
      1          6           0       -3.155129    0.228127    0.000000
      2          6           0       -1.962803    0.946279    0.000000
      3          6           0       -0.734718    0.291128    0.000000
      4          6           0       -0.704937   -1.100465   -0.000000
      5          6           0       -1.884226   -1.839835   -0.000000
      6          6           0       -3.095091   -1.159484    0.000000
      7         17           0       -4.585425   -2.075396    0.000000
      8          1           0       -4.116001    0.733264    0.000000
      9          1           0       -1.995094    2.031519    0.000000
     10          1           0        0.177594    0.851808    0.000000
     11          1           0        0.248714   -1.619487   -0.000000
     12          1           0       -1.867585   -2.925288   -0.000000
 ---------------------------------------------------------------------
                    Distance matrix (angstroms):
                    1          2          3          4          5
     1  C    0.000000
     2  C    1.391899   0.000000
     3  C    2.421231   1.391910   0.000000
     4  C    2.787221   2.402371   1.391912   0.000000
     5  C    2.427275   2.787222   2.421233   1.391901   0.000000
     6  C    1.388910   2.390882   2.770494   2.390883   1.388910
     7  Cl   2.711451   4.001084   4.519777   4.001085   2.711451
     8  H    1.085559   2.163709   3.410067   3.872715   3.406121
     9  H    2.144272   1.085720   2.148839   3.387304   3.872941
    10  H    3.390578   2.142480   1.070829   2.142482   3.390581
    11  H    3.872961   3.387324   2.148858   1.085741   2.144291
    12  H    3.406141   3.872737   3.410091   2.163730   1.085580
                    6          7          8          9         10
     6  C    0.000000
     7  Cl   1.749283   0.000000
     8  H    2.150524   2.847619   0.000000
     9  H    3.375277   4.855570   2.486707   0.000000
    10  H    3.841323   5.590606   4.295231   2.472305   0.000000
    11  H    3.375298   4.855590   4.958445   4.285384   2.472318
    12  H    2.150543   2.847626   4.294226   4.958446   4.295254
                   11         12
    11  H    0.000000
    12  H    2.486732   0.000000
 Stoichiometry    C6H5Cl(1-,2)
 Framework group  CS[SG(C6H5Cl)]
 Deg. of freedom    21
 Full point group                 CS      NOp   2
 Largest Abelian subgroup         CS      NOp   2
 Largest concise Abelian subgroup C1      NOp   1
                         Standard orientation:                         
 ---------------------------------------------------------------------
 Center     Atomic      Atomic             Coordinates (Angstroms)
 Number     Number       Type             X           Y           Z
 ---------------------------------------------------------------------
      1          6           0       -1.213637   -0.173730    0.000000
      2          6           0       -1.201187   -1.565573    0.000000
      3          6           0       -0.000003   -2.268831    0.000000
      4          6           0        1.201184   -1.565576    0.000000
      5          6           0        1.213637   -0.173731    0.000000
      6          6           0        0.000000    0.501663    0.000000
      7         17           0        0.000001    2.250946    0.000000
      8          1           0       -2.147104    0.380418    0.000000
      9          1           0       -2.142686   -2.106285    0.000000
     10          1           0       -0.000005   -3.339660    0.000000
     11          1           0        2.142699   -2.106301    0.000000
     12          1           0        2.147123    0.380427    0.000000
 ---------------------------------------------------------------------
 Rotational constants (GHZ):           5.7089004           1.5730016           1.2332093
 Standard basis: 6-311++G(d,p) (5D, 7F)
 There are   155 symmetry adapted cartesian basis functions of A'  symmetry.
 There are    49 symmetry adapted cartesian basis functions of A"  symmetry.
 There are   148 symmetry adapted basis functions of A'  symmetry.
 There are    49 symmetry adapted basis functions of A"  symmetry.
   197 basis functions,   314 primitive gaussians,   204 cartesian basis functions
    30 alpha electrons       29 beta electrons
       nuclear repulsion energy       315.8527574560 Hartrees.
 NAtoms=   12 NActive=   12 NUniq=   12 SFac= 1.00D+00 NAtFMM=   60 NAOKFM=F Big=F
 Integral buffers will be    131072 words long.
 Raffenetti 2 integral format.
 Two-electron integral symmetry is turned on.
 One-electron integrals computed using PRISM.
 NBasis=   197 RedAO= T EigKep=  1.10D-06  NBF=   148    49
 NBsUse=   197 1.00D-06 EigRej= -1.00D+00 NBFU=   148    49
 Initial guess from the checkpoint file:  "frequency_chks/1ClBzAnionRadical_Freq.chk"
 B after Tr=     0.000000    0.000000   -0.000000
         Rot=    1.000000   -0.000000   -0.000000   -0.000000 Ang=  -0.00 deg.
 Initial guess orbital symmetries:
 Alpha Orbitals:
       Occupied  (A') (A') (A') (A') (A') (A') (A') (A') (A') (A")
                 (A') (A') (A') (A') (A') (A') (A') (A') (A') (A')
                 (A') (A') (A") (A') (A') (A") (A') (A") (A") (A')
       Virtual   (A') (A') (A') (A") (A") (A') (A') (A") (A') (A')
                 (A') (A") (A") (A') (A') (A') (A") (A') (A") (A')
                 (A") (A') (A") (A') (A') (A') (A') (A') (A') (A')
                 (A') (A') (A") (A') (A') (A') (A') (A') (A') (A')
                 (A') (A') (A') (A') (A') (A') (A") (A') (A') (A')
                 (A") (A') (A') (A') (A') (A") (A") (A') (A") (A')
                 (A") (A") (A') (A') (A') (A') (A') (A') (A') (A')
                 (A") (A') (A') (A') (A') (A") (A') (A') (A') (A')
                 (A') (A") (A") (A') (A") (A") (A") (A') (A') (A')
                 (A") (A') (A') (A') (A') (A') (A") (A") (A") (A')
                 (A') (A') (A") (A') (A") (A') (A') (A") (A') (A")
                 (A') (A') (A") (A') (A') (A') (A") (A") (A') (A")
                 (A') (A") (A') (A') (A') (A') (A') (A') (A') (A")
                 (A') (A') (A') (A') (A') (A') (A") (A") (A') (A")
                 (A") (A') (A") (A') (A') (A') (A') (A') (A') (A')
                 (A') (A') (A') (A') (A') (A') (A') (A') (A') (A')
                 (A') (A') (A') (A") (A') (A') (A')
 Beta  Orbitals:
       Occupied  (A') (A') (A') (A') (A') (A') (A') (A') (A') (A")
                 (A') (A') (A') (A') (A') (A') (A') (A') (A') (A')
                 (A') (A') (A") (A') (A') (A") (A') (A") (A")
       Virtual   (A") (A") (A') (A') (A') (A') (A") (A') (A') (A')
                 (A") (A") (A') (A') (A") (A') (A') (A') (A") (A')
                 (A") (A") (A') (A') (A') (A') (A') (A') (A") (A')
                 (A') (A') (A') (A') (A') (A') (A') (A') (A') (A')
                 (A') (A') (A') (A') (A') (A') (A') (A") (A') (A')
                 (A') (A") (A') (A') (A') (A') (A") (A") (A') (A')
                 (A") (A") (A") (A') (A') (A') (A') (A') (A') (A')
                 (A') (A") (A') (A') (A') (A") (A') (A') (A') (A')
                 (A') (A') (A") (A") (A') (A") (A") (A") (A') (A')
                 (A') (A") (A') (A') (A') (A') (A') (A") (A") (A")
                 (A') (A') (A') (A") (A') (A") (A') (A') (A") (A")
                 (A') (A') (A') (A") (A') (A') (A') (A") (A") (A')
                 (A") (A') (A") (A') (A') (A') (A') (A') (A') (A')
                 (A") (A') (A') (A') (A') (A') (A') (A") (A") (A')
                 (A") (A") (A') (A") (A') (A') (A') (A') (A') (A')
                 (A') (A') (A') (A') (A') (A') (A') (A') (A') (A')
                 (A') (A') (A') (A') (A") (A') (A') (A')
 Initial guess <Sx>= 0.0000 <Sy>= 0.0000 <Sz>= 0.5000 <S**2>= 0.7514 S= 0.5007
 ExpMin= 3.60D-02 ExpMax= 1.06D+05 ExpMxC= 3.62D+03 IAcc=3 IRadAn=         5 AccDes= 0.00D+00
 Harris functional with IExCor= 1009 and IRadAn=       5 diagonalized for initial guess.
 HarFok:  IExCor= 1009 AccDes= 0.00D+00 IRadAn=         5 IDoV= 1 UseB2=F ITyADJ=14
 ICtDFT=  3500011 ScaDFX=  1.000000  1.000000  1.000000  1.000000
 FoFCou: FMM=F IPFlag=           0 FMFlag=      100000 FMFlg1=           0
         NFxFlg=           0 DoJE=T BraDBF=F KetDBF=T FulRan=T
         wScrn=  0.000000 ICntrl=       500 IOpCl=  0 I1Cent=   200000004 NGrid=           0
         NMat0=    1 NMatS0=      1 NMatT0=    0 NMatD0=    1 NMtDS0=    0 NMtDT0=    0
 Petite list used in FoFCou.
 Keep R1 and R2 ints in memory in symmetry-blocked form, NReq=304090353.
 Requested convergence on RMS density matrix=1.00D-08 within 128 cycles.
 Requested convergence on MAX density matrix=1.00D-06.
 Requested convergence on             energy=1.00D-06.
 No special actions if energy rises.
 SCF Done:  E(UM062X) =  -691.770908898     A.U. after   30 cycles
            NFock= 30  Conv=0.75D-08     -V/T= 2.0027
 <Sx>= 0.0000 <Sy>= 0.0000 <Sz>= 0.5000 <S**2>= 0.7513 S= 0.5007
 <L.S>=  0.00000000000    
 Annihilation of the first spin contaminant:
 S**2 before annihilation     0.7513,   after     0.7500
 Calling FoFJK, ICntrl=      2127 FMM=F ISym2X=1 I1Cent= 0 IOpClX= 1 NMat=1 NMatS=1 NMatT=0.
 ***** Axes restored to original set *****
 -------------------------------------------------------------------
 Center     Atomic                   Forces (Hartrees/Bohr)
 Number     Number              X              Y              Z
 -------------------------------------------------------------------
      1        6          -0.000246975   -0.000276503   -0.000000000
      2        6           0.000753528    0.000936912    0.000000000
      3        6          -0.011969476   -0.007357643   -0.000000000
      4        6           0.001186759    0.000242642   -0.000000000
      5        6          -0.000356503   -0.000108244    0.000000000
      6        6           0.005092305    0.003128791   -0.000000000
      7       17          -0.003696301   -0.002271566    0.000000000
      8        1           0.001686622   -0.000607441   -0.000000000
      9        1          -0.000089739   -0.000559210   -0.000000000
     10        1           0.007971927    0.004899165   -0.000000000
     11        1          -0.000551899    0.000179263    0.000000000
     12        1           0.000219752    0.001793834    0.000000000
 -------------------------------------------------------------------
 Cartesian Forces:  Max     0.011969476 RMS     0.003117276

 GradGradGradGradGradGradGradGradGradGradGradGradGradGradGradGradGradGrad
 Berny optimization.
 Using GEDIIS/GDIIS optimizer.
 FormGI is forming the generalized inverse of G from B-inverse, IUseBI=4.
 Internal  Forces:  Max     0.009356999 RMS     0.001587578
 Search for a local minimum.
 Step number   3 out of a maximum of   64
 All quantities printed in internal units (Hartrees-Bohrs-Radians)
 Mixed Optimization -- RFO/linear search
 Update second derivatives using D2CorX and points    2    3
 DE= -1.12D-02 DEPred=-1.77D-02 R= 6.34D-01
 TightC=F SS=  1.41D+00  RLast= 3.12D-01 DXNew= 8.4853D-01 9.3739D-01
 Trust test= 6.34D-01 RLast= 3.12D-01 DXMaxT set to 8.49D-01
 ITU=  1  1  0
 Use linear search instead of GDIIS.
     Eigenvalues ---    0.02102   0.02107   0.02116   0.02117   0.02119
     Eigenvalues ---    0.02124   0.02125   0.02129   0.02130   0.16000
     Eigenvalues ---    0.16000   0.16000   0.16000   0.16005   0.22000
     Eigenvalues ---    0.22172   0.23407   0.25000   0.25096   0.32954
     Eigenvalues ---    0.33711   0.33830   0.33872   0.34015   0.41852
     Eigenvalues ---    0.42110   0.45846   0.46032   0.46122   0.48071
 RFO step:  Lambda=-1.80236514D-04 EMin= 2.10196981D-02
 Quartic linear search produced a step of -0.07683.
 Iteration  1 RMS(Cart)=  0.00320105 RMS(Int)=  0.00000486
 Iteration  2 RMS(Cart)=  0.00000647 RMS(Int)=  0.00000159
 Iteration  3 RMS(Cart)=  0.00000000 RMS(Int)=  0.00000159
 ClnCor:  largest displacement from symmetrization is 3.02D-12 for atom     9.
 Variable       Old X    -DE/DX   Delta X   Delta X   Delta X     New X
                                 (Linear)    (Quad)   (Total)
    R1        2.63031  -0.00159  -0.00005  -0.00310  -0.00315   2.62715
    R2        2.62466  -0.00113   0.00062  -0.00293  -0.00232   2.62234
    R3        2.05141  -0.00178   0.00066  -0.00581  -0.00515   2.04626
    R4        2.63033  -0.00178  -0.00019  -0.00344  -0.00363   2.62670
    R5        2.05171  -0.00056   0.00098  -0.00288  -0.00190   2.04981
    R6        2.63033  -0.00178  -0.00019  -0.00344  -0.00363   2.62670
    R7        2.02357   0.00936   0.02385   0.00271   0.02656   2.05013
    R8        2.63031  -0.00159  -0.00005  -0.00311  -0.00316   2.62715
    R9        2.05175  -0.00057   0.00099  -0.00293  -0.00194   2.04981
   R10        2.62466  -0.00113   0.00062  -0.00293  -0.00232   2.62234
   R11        2.05145  -0.00179   0.00066  -0.00586  -0.00519   2.04626
   R12        3.30567   0.00434  -0.00152   0.01432   0.01281   3.31847
    A1        2.06967  -0.00002   0.00033  -0.00030   0.00003   2.06970
    A2        2.11547  -0.00024  -0.00022  -0.00130  -0.00152   2.11395
    A3        2.09804   0.00026  -0.00010   0.00160   0.00149   2.09953
    A4        2.10941  -0.00106   0.00018  -0.00524  -0.00506   2.10435
    A5        2.08317   0.00042  -0.00001   0.00177   0.00176   2.08492
    A6        2.09061   0.00064  -0.00018   0.00348   0.00330   2.09391
    A7        2.08226   0.00181  -0.00017   0.00814   0.00797   2.09023
    A8        2.10046  -0.00090   0.00008  -0.00407  -0.00399   2.09648
    A9        2.10046  -0.00090   0.00008  -0.00407  -0.00399   2.09648
   A10        2.10941  -0.00106   0.00018  -0.00524  -0.00506   2.10435
   A11        2.09061   0.00064  -0.00018   0.00348   0.00330   2.09391
   A12        2.08317   0.00042  -0.00001   0.00176   0.00175   2.08492
   A13        2.06967  -0.00002   0.00033  -0.00029   0.00003   2.06971
   A14        2.11548  -0.00025  -0.00022  -0.00130  -0.00153   2.11395
   A15        2.09804   0.00026  -0.00010   0.00160   0.00149   2.09953
   A16        2.12595   0.00035  -0.00086   0.00294   0.00208   2.12803
   A17        2.07862  -0.00017   0.00043  -0.00147  -0.00104   2.07758
   A18        2.07862  -0.00017   0.00043  -0.00147  -0.00104   2.07758
[...]
   R12        3.32509   0.00039   0.00000   0.00234   0.00234   3.32743
    A1        2.06892  -0.00012   0.00000  -0.00091  -0.00091   2.06801
    A2        2.11414   0.00007   0.00000   0.00057   0.00057   2.11470
    A3        2.10013   0.00004   0.00000   0.00034   0.00034   2.10047
    A4        2.10270   0.00001   0.00000   0.00010   0.00010   2.10280
    A5        2.08601   0.00003   0.00000   0.00023   0.00023   2.08623
    A6        2.09447  -0.00003   0.00000  -0.00032  -0.00032   2.09415
    A7        2.09300  -0.00000   0.00000   0.00014   0.00014   2.09314
    A8        2.09509   0.00000   0.00000  -0.00007  -0.00007   2.09502
    A9        2.09509   0.00000   0.00000  -0.00007  -0.00007   2.09502
   A10        2.10270   0.00001   0.00000   0.00010   0.00010   2.10280
   A11        2.09447  -0.00003   0.00000  -0.00032  -0.00032   2.09415
   A12        2.08601   0.00003   0.00000   0.00023   0.00023   2.08623
   A13        2.06892  -0.00012   0.00000  -0.00091  -0.00091   2.06801
   A14        2.11414   0.00007   0.00000   0.00057   0.00057   2.11470
   A15        2.10013   0.00004   0.00000   0.00034   0.00034   2.10047
   A16        2.13012   0.00023   0.00000   0.00148   0.00148   2.13160
   A17        2.07653  -0.00011   0.00000  -0.00074  -0.00074   2.07579
   A18        2.07653  -0.00011   0.00000  -0.00074  -0.00074   2.07579
    D1       -0.00000  -0.00000   0.00000  -0.00000   0.00000   0.00000
    D2        3.14159   0.00000   0.00000  -0.00000   0.00000   3.14159
    D3        3.14159  -0.00000   0.00000  -0.00000   0.00000   3.14159
    D4        0.00000   0.00000   0.00000  -0.00000  -0.00000   0.00000
    D5        0.00000  -0.00000   0.00000   0.00000  -0.00000   0.00000
    D6        3.14159   0.00000   0.00000   0.00000   0.00000   3.14159
    D7        3.14159   0.00000   0.00000   0.00000   0.00000   3.14159
    D8        0.00000   0.00000   0.00000   0.00000   0.00000   0.00000
    D9       -0.00000   0.00000   0.00000   0.00000   0.00000   0.00000
   D10        3.14159  -0.00000   0.00000   0.00000   0.00000   3.14159
   D11        3.14159  -0.00000   0.00000  -0.00000   0.00000   3.14159
   D12        0.00000   0.00000   0.00000   0.00000   0.00000   0.00000
   D13        0.00000   0.00000   0.00000   0.00000   0.00000   0.00000
   D14        3.14159   0.00000   0.00000   0.00000   0.00000   3.14159
   D15        3.14159  -0.00000   0.00000   0.00000   0.00000   3.14159
   D16       -0.00000  -0.00000   0.00000  -0.00000   0.00000   0.00000
   D17       -0.00000  -0.00000   0.00000  -0.00000   0.00000   0.00000
   D18        3.14159  -0.00000   0.00000  -0.00000   0.00000   3.14159
   D19        3.14159  -0.00000   0.00000  -0.00000   0.00000   3.14159
   D20       -0.00000  -0.00000   0.00000  -0.00000   0.00000   0.00000
   D21       -0.00000  -0.00000   0.00000  -0.00000   0.00000   0.00000
   D22        3.14159  -0.00000   0.00000   0.00000   0.00000   3.14159
   D23        3.14159   0.00000   0.00000  -0.00000   0.00000   3.14159
   D24       -0.00000  -0.00000   0.00000   0.00000   0.00000   0.00000
         Item               Value     Threshold  Converged?
 Maximum Force            0.000389     0.000450     YES
 RMS     Force            0.000088     0.000300     YES
 Maximum Displacement     0.001322     0.001800     YES
 RMS     Displacement     0.000412     0.001200     YES
 Predicted change in Energy=-1.070456D-06
 Optimization completed.
    -- Stationary point found.
                           ----------------------------
                           !   Optimized Parameters   !
                           ! (Angstroms and Degrees)  !
 --------------------------                            --------------------------
 ! Name  Definition              Value          Derivative Info.                !
 --------------------------------------------------------------------------------
 ! R1    R(1,2)                  1.3907         -DE/DX =    0.0002              !
 ! R2    R(1,6)                  1.3872         -DE/DX =   -0.0001              !
 ! R3    R(1,8)                  1.0829         -DE/DX =    0.0001              !
 ! R4    R(2,3)                  1.3896         -DE/DX =    0.0001              !
 ! R5    R(2,9)                  1.0847         -DE/DX =    0.0                 !
 ! R6    R(3,4)                  1.3896         -DE/DX =    0.0001              !
 ! R7    R(3,10)                 1.0847         -DE/DX =   -0.0001              !
 ! R8    R(4,5)                  1.3907         -DE/DX =    0.0002              !
 ! R9    R(4,11)                 1.0847         -DE/DX =    0.0                 !
 ! R10   R(5,6)                  1.3872         -DE/DX =   -0.0001              !
 ! R11   R(5,12)                 1.0829         -DE/DX =    0.0001              !
 ! R12   R(6,7)                  1.7596         -DE/DX =    0.0004              !
 ! A1    A(2,1,6)              118.5404         -DE/DX =   -0.0001              !
 ! A2    A(2,1,8)              121.131          -DE/DX =    0.0001              !
 ! A3    A(6,1,8)              120.3285         -DE/DX =    0.0                 !
 ! A4    A(1,2,3)              120.4761         -DE/DX =    0.0                 !
 ! A5    A(1,2,9)              119.5194         -DE/DX =    0.0                 !
 ! A6    A(3,2,9)              120.0045         -DE/DX =    0.0                 !
 ! A7    A(2,3,4)              119.9201         -DE/DX =    0.0                 !
 ! A8    A(2,3,10)             120.04           -DE/DX =    0.0                 !
 ! A9    A(4,3,10)             120.04           -DE/DX =    0.0                 !
 ! A10   A(3,4,5)              120.4761         -DE/DX =    0.0                 !
 ! A11   A(3,4,11)             120.0045         -DE/DX =    0.0                 !
 ! A12   A(5,4,11)             119.5194         -DE/DX =    0.0                 !
 ! A13   A(4,5,6)              118.5404         -DE/DX =   -0.0001              !
 ! A14   A(4,5,12)             121.131          -DE/DX =    0.0001              !
 ! A15   A(6,5,12)             120.3285         -DE/DX =    0.0                 !
 ! A16   A(1,6,5)              122.047          -DE/DX =    0.0002              !
 ! A17   A(1,6,7)              118.9765         -DE/DX =   -0.0001              !
 ! A18   A(5,6,7)              118.9765         -DE/DX =   -0.0001              !
 ! D1    D(6,1,2,3)              0.0            -DE/DX =    0.0                 !
 ! D2    D(6,1,2,9)            180.0            -DE/DX =    0.0                 !
 ! D3    D(8,1,2,3)            180.0            -DE/DX =    0.0                 !
 ! D4    D(8,1,2,9)              0.0            -DE/DX =    0.0                 !
 ! D5    D(2,1,6,5)              0.0            -DE/DX =    0.0                 !
 ! D6    D(2,1,6,7)            180.0            -DE/DX =    0.0                 !
 ! D7    D(8,1,6,5)            180.0            -DE/DX =    0.0                 !
 ! D8    D(8,1,6,7)              0.0            -DE/DX =    0.0                 !
 ! D9    D(1,2,3,4)              0.0            -DE/DX =    0.0                 !
 ! D10   D(1,2,3,10)           180.0            -DE/DX =    0.0                 !
 ! D11   D(9,2,3,4)            180.0            -DE/DX =    0.0                 !
 ! D12   D(9,2,3,10)             0.0            -DE/DX =    0.0                 !
 ! D13   D(2,3,4,5)              0.0            -DE/DX =    0.0                 !
 ! D14   D(2,3,4,11)           180.0            -DE/DX =    0.0                 !
 ! D15   D(10,3,4,5)           180.0            -DE/DX =    0.0                 !
 ! D16   D(10,3,4,11)            0.0            -DE/DX =    0.0                 !
 ! D17   D(3,4,5,6)              0.0            -DE/DX =    0.0                 !
 ! D18   D(3,4,5,12)           180.0            -DE/DX =    0.0                 !
 ! D19   D(11,4,5,6)           180.0            -DE/DX =    0.0                 !
 ! D20   D(11,4,5,12)            0.0            -DE/DX =    0.0                 !
 ! D21   D(4,5,6,1)              0.0            -DE/DX =    0.0                 !
 ! D22   D(4,5,6,7)            180.0            -DE/DX =    0.0                 !
 ! D23   D(12,5,6,1)           180.0            -DE/DX =    0.0                 !
 ! D24   D(12,5,6,7)             0.0            -DE/DX =    0.0                 !
 --------------------------------------------------------------------------------
 GradGradGradGradGradGradGradGradGradGradGradGradGradGradGradGradGradGrad


 ----------------------------------------------------------------------

 Electric dipole moment (input orientation):
 (Debye = 10**-18 statcoulomb cm , SI units = C m)
                  (au)            (Debye)         (10**-30 SI)
   Tot        0.363747D+01      0.924553D+01      0.308398D+02
   x         -0.309901D+01     -0.787690D+01     -0.262745D+02
   y         -0.190456D+01     -0.484091D+01     -0.161475D+02
   z          0.000000D+00      0.000000D+00      0.000000D+00

 Dipole polarizability, Alpha (input orientation).
 (esu units = cm**3 , SI units = C**2 m**2 J**-1)
 Alpha(0;0):
               (au)            (10**-24 esu)      (10**-40 SI)
   iso        0.202154D+04      0.299561D+03      0.333307D+03
   aniso      0.245020D+04      0.363083D+03      0.403984D+03
   xx         0.218654D+04      0.324012D+03      0.360512D+03
   yx        -0.857618D+03     -0.127086D+03     -0.141402D+03
   yy         0.305494D+04      0.452695D+03      0.503691D+03
   zx        -0.153787D-03     -0.227888D-04     -0.253560D-04
   zy        -0.408254D-04     -0.604970D-05     -0.673120D-05
   zz         0.823134D+03      0.121976D+03      0.135717D+03

 ----------------------------------------------------------------------

 Dipole orientation:
     6         -1.82678782          2.97246453          4.85278898
     6         -1.81631371          2.95542155          2.22489651
     6         -0.62604612          1.01867325          0.91031434
     6          0.56422011         -0.91807283          2.22490089
     6          0.57469164         -0.93511162          4.85279329
     6         -0.62604871          1.01867746          6.12273984
    17         -0.62605037          1.01868017          9.44782645
     1         -2.74812070          4.47161472          5.89737002
     1         -2.74619927          4.46848826          1.20137624
     1         -0.62604506          1.01867152         -1.13948555
     1          1.49410537         -2.43113905          1.20138540
     1          1.49602230         -2.43425819          5.89737631

 Electric dipole moment (dipole orientation):
 (Debye = 10**-18 statcoulomb cm , SI units = C m)
                  (au)            (Debye)         (10**-30 SI)
   Tot        0.363747D+01      0.924553D+01      0.308398D+02
   x          0.000000D+00      0.000000D+00      0.000000D+00
   y          0.000000D+00      0.000000D+00      0.000000D+00
   z          0.363747D+01      0.924553D+01      0.308398D+02

 Dipole polarizability, Alpha (dipole orientation).
 (esu units = cm**3 , SI units = C**2 m**2 J**-1)
 Alpha(0;0):
               (au)            (10**-24 esu)      (10**-40 SI)
   iso        0.202154D+04      0.299561D+03      0.333307D+03
   aniso      0.245020D+04      0.363083D+03      0.403984D+03
   xx         0.157948D+04      0.234055D+03      0.260421D+03
   yx        -0.123069D+04     -0.182370D+03     -0.202914D+03
   yy         0.282566D+04      0.418720D+03      0.465889D+03
   zx        -0.239089D-02     -0.354294D-03     -0.394205D-03
   zy         0.418141D-02      0.619621D-03      0.689421D-03
   zz         0.165947D+04      0.245908D+03      0.273610D+03

 ----------------------------------------------------------------------
 1\1\GINC-SH03-01N04\Freq\UM062X\6-311++G(d,p)\C6H5Cl1(1-,2)\JLAPIER\09
 -Dec-2025\0\\#N Geom=AllCheck Guess=TCheck SCRF=Check GenChk UM062X/6-
 311++G(d,p) Freq\\1-Chloro-Benzene Anion Radical (1)\\-1,2\C,-3.154535
 5828,0.228378767,0.\C,-1.9642286242,0.9474807231,0.\C,-0.7416972779,0.
 286834219,0.\C,-0.7045063456,-1.1022854406,0.\C,-1.8837293246,-1.83942
 26758,0.\C,-3.0916790014,-1.157391209,0.\Cl,-4.5907685878,-2.078684868
 9,0.\H,-4.1130249554,0.7322686219,0.\H,-1.9948569435,2.0317520167,0.\H
 ,0.1824391725,0.8547795895,0.\H,0.2490115122,-1.6193760568,0.\H,-1.867
 1240408,-2.9221636872,0.\\Version=ES64L-G16RevB.01\State=2-A'\HF=-691.
 771126\S2=0.751286\S2-1=0.\S2A=0.750002\RMSD=3.166e-09\RMSF=1.753e-04\
 ZeroPoint=0.0907407\Thermal=0.0963544\Dipole=-3.0990099,-1.9045588,0.\
 DipoleDeriv=0.7959559,-2.3237075,0.0000004,-0.5218654,0.541906,-0.0000
 004,0.,-0.0000001,2.4647487,-0.1305729,0.6535038,0.,-0.4797617,0.37496
 9,0.0000009,0.,0.0000004,-0.4895918,0.4614298,0.1740886,-0.0000011,0.1
 740853,0.2851555,-0.0000005,-0.000001,-0.0000008,1.2384918,0.3418304,-
 0.718923,0.0000011,0.414329,-0.0974259,-0.0000005,0.0000018,0.,-0.4895
 981,-0.5529948,0.1610883,-0.0000002,-1.6407488,1.8908425,0.0000009,-0.
 0000017,0.0000004,2.46475,0.2188262,0.941383,-0.0000002,0.9413839,-0.7
 343812,-0.0000002,0.0000004,-0.0000004,-3.3177674,0.4384751,0.1324172,
 -0.0000002,0.1324203,0.3043851,-0.0000002,-0.0000002,0.,0.6191251,-0.0
 154978,0.0229941,0.,0.4658766,-0.7466627,0.0000001,0.0000006,0.,-0.572
 1629,-0.5335688,-0.1545817,0.,0.0838096,-0.9501302,0.,0.,0.0000002,-0.
 8033744,-0.7297622,0.1848434,0.,0.1848453,-0.9169352,0.,0.0000001,0.,-
 0.7390882,-0.8936546,0.2661147,0.,0.0277244,-0.5900318,-0.0000001,0.00
 00002,0.0000002,-0.8033712,-0.4004661,0.6607791,0.,0.2179014,-0.361691
 3,0.,0.,0.,-0.5721617\Polar=2186.5404018,-857.6176577,3054.9391707,-0.
 0001538,-0.0000408,823.1344882\Quadrupole=-9.7162515,-3.7943286,13.510
 5801,-5.848322,0.,0.\PG=CS [SG(C6H5Cl1)]\NImag=0\\0.74015106,-0.036316
 21,0.69160470,0.,0.,0.12171201,-0.28275476,-0.05482131,0.,0.67457441,-
 0.13350100,-0.18799687,0.00000001,-0.00543080,0.73648509,0.,0.,-0.0477
 8574,0.,-0.00000001,0.12753213,-0.05445957,-0.03363803,0.,-0.29870632,
 0.12813296,0.,0.72719854,0.02498436,0.07315916,0.,0.05341279,-0.178735
 97,0.,0.02966066,0.69716460,0.,0.,0.01080535,0.,-0.00000001,-0.0624731
 9,0.00000001,0.,0.13428733,-0.02422186,-0.02974870,0.,0.03921725,0.026
 61187,0.,-0.13005222,0.04274443,-0.00000001,0.71947880,-0.02753449,-0.
 06618866,0.,0.08635604,-0.01797775,0.,-0.03197586,-0.34739025,0.,-0.02
 816570,0.69158406,0.,-0.00000001,0.00224236,0.,0.00000002,0.00407466,-
 0.00000001,-0.00000001,-0.06247318,0.00000001,0.,0.12753169,0.03682966
 ,0.08416860,0.,-0.08071078,-0.00114867,0.,0.04363334,-0.08330191,0.,-0
 .28322335,-0.05458414,0.,0.67223917,0.02692163,-0.01941467,0.,0.001065
 49,-0.00969976,0.,-0.02467952,-0.02493376,-0.00000001,-0.13326398,-0.1
 8752838,0.,-0.00193284,0.75951946,0.,0.,-0.00095807,0.,-0.00000002,0.0
 0224235,0.,0.00000001,0.01080535,0.,0.,-0.04778568,0.,0.,0.12171158,-0
 .11629011,-0.01497256,0.,0.03900283,-0.02090726,0.,-0.02579235,0.03851
 374,0.,-0.05623548,-0.04731530,0.,-0.27534333,0.14381538,0.,0.55593186
 ,0.06328764,-0.34057569,0.,-0.09553389,-0.02169470,0.,0.03851372,-0.06
 479091,0.,0.02731134,0.07354351,0.,0.06555511,-0.18152242,0.,-0.074269
 83,0.63113648,0.,0.,-0.05232666,0.,0.,-0.00917391,0.,0.,-0.01443701,0.
 ,0.,-0.00917395,0.,0.,-0.05232662,0.,0.,0.11369119,-0.01227714,-0.0117
 8514,0.,0.00162102,-0.00129893,0.,-0.00234516,-0.00277679,0.,-0.000473
 05,0.00827293,0.,-0.03923554,-0.02647373,0.,-0.11987718,-0.04738869,0.
 ,0.17063022,-0.04012261,-0.01986530,0.,0.00721273,-0.00400397,0.,-0.00
 277679,0.00046658,0.,-0.00023871,-0.00190990,0.,0.00186374,0.00709312,
 0.,-0.04738869,-0.07189196,0.,0.08247966,0.08711227,0.,0.,-0.00142724,
 0.,0.,0.00870995,0.,0.,-0.00153291,0.,0.,0.00870994,0.,0.,-0.00142724,
 0.,0.,-0.01943407,0.,0.,0.01563455,-0.28508315,0.12306890,0.,-0.015098
 40,0.01225954,0.,-0.00310076,-0.00356617,0.,-0.00029704,-0.00097346,0.
 ,0.00127234,-0.00004663,0.,0.00412487,-0.00313990,0.,0.00060866,-0.001
 34497,0.,0.29725155,0.11869040,-0.11880836,0.,-0.01522044,0.01287714,0
 .,-0.00279068,-0.00091837,0.,-0.00136986,-0.00097844,0.,-0.00032344,-0
 .00455275,0.,0.02578251,-0.01252182,0.,0.00141416,0.00170917,0.,-0.127
 38043,0.12333581,0.,0.,-0.03922322,0.,0.,0.00481299,0.,0.,0.00828614,0
 .,0.,-0.00177982,0.,0.,0.00615942,0.,0.,0.00667975,0.,0.,-0.00382115,0
 .,0.,0.02423959,0.00426783,-0.02880790,0.,-0.05854950,0.00884132,0.,0.
 00416947,0.02810994,0.,-0.00430031,0.00284733,0.,-0.00158764,-0.000450
 31,0.,-0.00254705,-0.00119788,0.,-0.00053309,-0.00161799,0.,0.00041270
 ,0.00067440,0.,0.05767428,0.00065089,-0.01134289,0.,0.00857651,-0.3363
 8834,0.,-0.00034765,-0.00884507,0.,0.00366228,-0.00084840,0.,-0.000285
 43,0.00176193,0.,-0.00278028,-0.00087296,0.,0.00109612,0.00019049,0.,0
 .00048377,-0.00017780,0.,-0.00891476,0.35677888,0.,0.,-0.00013990,0.,0
 .,-0.03836217,0.,0.,0.00374594,0.,0.,0.00809058,0.,0.,-0.00382821,0.,0
 .,0.01320116,0.,0.,-0.00031127,0.,0.,-0.00401335,0.,0.,0.02657794,-0.0
 0343058,0.00223798,0.,-0.01788260,-0.01388491,0.,-0.26161791,-0.124640
 51,0.,0.00681455,0.00197154,0.,0.00093727,0.00000169,0.,-0.00015584,0.
 00163440,0.,0.00053621,0.00006608,0.,-0.00046557,-0.00096219,0.,0.0008
 5976,-0.00088353,0.,0.27509085,0.00221310,-0.00019666,0.,0.01447556,0.
 01284622,0.,-0.12464051,-0.13540838,0.,-0.02638894,-0.01185091,0.,0.00
 002657,-0.00456452,0.,0.00163440,-0.00181081,0.,0.00006608,0.00046931,
 0.,0.00102623,0.00008769,0.,-0.00070499,-0.00027893,0.,0.13359125,0.13
 981789,0.,0.,0.00476989,0.,0.,0.00411215,0.,0.,-0.03904591,0.,0.,0.004
 11216,0.,0.,0.00476989,0.,0.,0.00341916,0.,0.,-0.00096813,0.,0.,-0.000
 16357,0.,0.,-0.00376895,0.,0.,0.02669584,0.00078200,-0.00148517,0.,0.0
 0107062,0.00094301,0.,0.00499838,-0.00076735,0.,-0.27268327,0.11699145
 ,0.,-0.01950489,0.01268691,0.,-0.00281770,-0.00264325,0.,-0.00016746,0
 .00091100,0.,0.00010382,0.00003526,0.,-0.00007313,-0.00124111,0.,-0.00
 068676,-0.00010054,0.,0.28856895,-0.00165005,-0.00060773,0.,0.00012806
 ,-0.00621935,0.,0.02769034,-0.00967396,0.,0.11725625,-0.12225760,0.,-0
 .01677197,0.01242980,0.,-0.00106086,-0.00060229,0.,-0.00180310,-0.0001
 7514,0.,0.00005955,0.00018502,0.,0.00121336,-0.00005908,0.,0.00007799,
 0.00126759,0.,-0.12581565,0.12588723,0.,0.,-0.00382821,0.,0.,0.0080905
 9,0.,0.,0.00374595,0.,0.,-0.03836177,0.,0.,-0.00013992,0.,0.,0.0132012
 0,0.,0.,-0.00031127,0.,0.,-0.00122798,0.,0.,0.00003620,0.,0.,-0.003768
 96,0.,0.,0.02657753,-0.00351338,0.00209954,0.,-0.00178377,-0.00061714,
 0.,-0.00392543,-0.00237318,0.,0.00597600,-0.02589034,0.,-0.05530624,0.
 00235591,0.,-0.00000052,0.02787124,0.,0.00151251,0.00095655,0.,0.00027
 096,0.00145031,0.,0.00020666,-0.00001681,0.,0.00000062,-0.00119822,0.,
 0.00040942,0.00067607,0.,0.05615316,0.00237634,0.00023297,0.,-0.000220
 74,0.00050827,0.,-0.00314864,-0.00009370,0.,0.00158972,-0.00819726,0.,
 0.00673439,-0.34858805,0.,-0.00105124,-0.00839643,0.,-0.00180257,0.000
 80532,0.,-0.00044644,-0.00023729,0.,0.00000748,0.00008218,0.,0.0007902
 0,-0.00037850,0.,0.00048543,-0.00017450,0.,-0.00531393,0.36443698,0.,0
 .,0.00615943,0.,0.,-0.00177982,0.,0.,0.00828614,0.,0.,0.00481300,0.,0.
 ,-0.03922285,0.,0.,0.00667976,0.,0.,-0.00382115,0.,0.,0.00005120,0.,0.
 ,-0.00122798,0.,0.,-0.00016357,0.,0.,-0.00401336,0.,0.,0.02423921\\0.0
 0027217,0.00017025,0.,-0.00009642,-0.00002082,0.,-0.00018432,-0.000113
 33,0.,-0.00006131,-0.00007710,0.,0.00027490,0.00016502,0.,-0.00067934,
 -0.00041754,0.,0.00033148,0.00020372,0.,0.00011407,-0.00004233,0.,-0.0
 0002750,-0.00004207,0.,0.00009338,0.00005738,0.,-0.00005087,-0.0000050
 3,0.,0.00001375,0.00012186,0.\\\@


 TWO ROADS DIVERGED IN A WOOD, AND I--
 I TOOK THE ONE LESS TRAVELED BY,
 AND THAT HAS MADE ALL THE DIFFERENCE.

                       -- ROBERT FROST
 Job cpu time:       0 days  0 hours 34 minutes 27.2 seconds.
 Elapsed time:       0 days  0 hours  8 minutes 39.0 seconds.
 File lengths (MBytes):  RWF=    137 Int=      0 D2E=      0 Chk=     34 Scr=      1
 Normal termination of Gaussian 16 at Tue Dec  9 13:59:58 2025.
