 Entering Gaussian System, Link 0=g16
 Initial command:
 /share/software/user/restricted/gaussian/g16.B01/l1.exe "/home/users/jlapier/Chloroaromatics/Gau-24073.inp" -scrdir="/home/users/jlapier/Chloroaromatics/"
 Entering Link 1 = /share/software/user/restricted/gaussian/g16.B01/l1.exe PID=     24074.
  
 Copyright (c) 1988-2017, Gaussian, Inc.  All Rights Reserved.
  
 This is part of the Gaussian(R) 16 program.  It is based on
 the Gaussian(R) 09 system (copyright 2009, Gaussian, Inc.),
 the Gaussian(R) 03 system (copyright 2003, Gaussian, Inc.),
 the Gaussian(R) 98 system (copyright 1998, Gaussian, Inc.),
 the Gaussian(R) 94 system (copyright 1995, Gaussian, Inc.),
 the Gaussian 92(TM) system (copyright 1992, Gaussian, Inc.),
 the Gaussian 90(TM) system (copyright 1990, Gaussian, Inc.),
 the Gaussian 88(TM) system (copyright 1988, Gaussian, Inc.),
 the Gaussian 86(TM) system (copyright 1986, Carnegie Mellon
 University), and the Gaussian 82(TM) system (copyright 1983,
 Carnegie Mellon University). Gaussian is a federally registered
 trademark of Gaussian, Inc.
  
 This software contains proprietary and confidential information,
 including trade secrets, belonging to Gaussian, Inc.
  
 This software is provided under written license and may be
 used, copied, transmitted, or stored only in accord with that
 written license.
  
 The following legend is applicable only to US Government
 contracts under FAR:
  
                    RESTRICTED RIGHTS LEGEND
  
 Use, reproduction and disclosure by the US Government is
 subject to restrictions as set forth in subparagraphs (a)
 and (c) of the Commercial Computer Software - Restricted
 Rights clause in FAR 52.227-19.
  
 Gaussian, Inc.
 340 Quinnipiac St., Bldg. 40, Wallingford CT 06492
  
  
 ---------------------------------------------------------------
 Warning -- This program may not be used in any manner that
 competes with the business of Gaussian, Inc. or will provide
 assistance to any competitor of Gaussian, Inc.  The licensee
 of this program is prohibited from giving any competitor of
 Gaussian, Inc. access to this program.  By using this program,
 the user acknowledges that Gaussian, Inc. is engaged in the
 business of creating and licensing software in the field of
 computational chemistry and represents and warrants to the
 licensee that it is not a competitor of Gaussian, Inc. and that
 it will not use this program in any manner prohibited above.
 ---------------------------------------------------------------
  

 Cite this work as:
 Gaussian 16, Revision B.01,
 M. J. Frisch, G. W. Trucks, H. B. Schlegel, G. E. Scuseria, 
 M. A. Robb, J. R. Cheeseman, G. Scalmani, V. Barone, 
 G. A. Petersson, H. Nakatsuji, X. Li, M. Caricato, A. V. Marenich, 
 J. Bloino, B. G. Janesko, R. Gomperts, B. Mennucci, H. P. Hratchian, 
 J. V. Ortiz, A. F. Izmaylov, J. L. Sonnenberg, D. Williams-Young, 
 F. Ding, F. Lipparini, F. Egidi, J. Goings, B. Peng, A. Petrone, 
 T. Henderson, D. Ranasinghe, V. G. Zakrzewski, J. Gao, N. Rega, 
 G. Zheng, W. Liang, M. Hada, M. Ehara, K. Toyota, R. Fukuda, 
 J. Hasegawa, M. Ishida, T. Nakajima, Y. Honda, O. Kitao, H. Nakai, 
 T. Vreven, K. Throssell, J. A. Montgomery, Jr., J. E. Peralta, 
 F. Ogliaro, M. J. Bearpark, J. J. Heyd, E. N. Brothers, K. N. Kudin, 
 V. N. Staroverov, T. A. Keith, R. Kobayashi, J. Normand, 
 K. Raghavachari, A. P. Rendell, J. C. Burant, S. S. Iyengar, 
 J. Tomasi, M. Cossi, J. M. Millam, M. Klene, C. Adamo, R. Cammi, 
 J. W. Ochterski, R. L. Martin, K. Morokuma, O. Farkas, 
 J. B. Foresman, and D. J. Fox, Gaussian, Inc., Wallingford CT, 2016.
 
 ******************************************
 Gaussian 16:  ES64L-G16RevB.01 20-Dec-2017
                 9-Dec-2025 
 ******************************************
 %mem=8GB
 %nprocshare=4
 Will use up to    4 processors via shared memory.
 %oldchk=geometry_chks/1ClBz.chk
 %chk=frequency_chks/1ClBz_Freq.chk
 Copying data from "geometry_chks/1ClBz.chk" to current chk file "frequency_chks/1ClBz_Freq.chk"
 IOpt=  2 FromEx=T IUOpen= 4 IOptOp= 5 NList=   0 IFRang= 0 IUIn= 4 IUOut= 2.
 -------------------------------------------------------
 # opt freq 6-311++g(d,p) guess=read geom=allcheck m062x
 -------------------------------------------------------
 1/18=20,19=15,26=3,29=7,38=1/1,3;
 2/9=110,12=2,40=1/2;
 3/5=4,6=6,7=1111,11=2,14=-4,25=1,30=1,71=1,74=-55,116=-2/1,2,3;
 4/5=1/1;
 5/5=2,38=6/2;
 6/7=2,8=2,9=2,10=2,28=1/1;
 7//1,2,3,16;
 1/18=20,19=15,26=3/3(2);
 2/9=110/2;
 99//99;
 2/9=110/2;
 3/5=4,6=6,7=1111,11=2,14=-2,25=1,30=1,71=1,74=-55/1,2,3;
 4/5=5,16=3,69=1/1;
 5/5=2,38=5/2;
 7//1,2,3,16;
 1/18=20,19=15,26=3/3(-5);
 2/9=110/2;
 6/7=2,8=2,9=2,10=2,19=2,28=1/1;
 99/9=1/99;
 Structure from the checkpoint file:  "frequency_chks/1ClBz_Freq.chk"
 --------------------
 1-Chloro-Benzene (1)
 --------------------
 Charge =  0 Multiplicity = 1
 Redundant internal coordinates found in file.  (old form).
 C,0,-3.1610829748,0.2262547195,0.
 C,0,-1.9694431695,0.9501550632,0.
 C,0,-0.7427160508,0.2862081951,0.
 C,0,-0.7044758178,-1.1081454048,0.
 C,0,-1.8885819784,-1.8443044477,0.
 C,0,-3.1147044039,-1.1715418835,0.
 Cl,0,-4.563947289,-2.0622011062,0.
 H,0,-4.1282281066,0.7508022859,0.
 H,0,-2.0008544629,2.0498487556,0.
 H,0,0.1943417731,0.8620949212,0.
 H,0,0.2624483703,-1.632901671,0.
 H,0,-1.8574558896,-2.9440994272,0.
 Recover connectivity data from disk.

 GradGradGradGradGradGradGradGradGradGradGradGradGradGradGradGradGradGrad
 Berny optimization.
 Initialization pass.
                           ----------------------------
                           !    Initial Parameters    !
                           ! (Angstroms and Degrees)  !
 --------------------------                            --------------------------
 ! Name  Definition              Value          Derivative Info.                !
 --------------------------------------------------------------------------------
 ! R1    R(1,2)                  1.3943         estimate D2E/DX2                !
 ! R2    R(1,6)                  1.3986         estimate D2E/DX2                !
 ! R3    R(1,8)                  1.1002         estimate D2E/DX2                !
 ! R4    R(2,3)                  1.3949         estimate D2E/DX2                !
 ! R5    R(2,9)                  1.1001         estimate D2E/DX2                !
 ! R6    R(3,4)                  1.3949         estimate D2E/DX2                !
 ! R7    R(3,10)                 1.0999         estimate D2E/DX2                !
 ! R8    R(4,5)                  1.3943         estimate D2E/DX2                !
 ! R9    R(4,11)                 1.1001         estimate D2E/DX2                !
 ! R10   R(5,6)                  1.3986         estimate D2E/DX2                !
 ! R11   R(5,12)                 1.1002         estimate D2E/DX2                !
 ! R12   R(6,7)                  1.7011         estimate D2E/DX2                !
 ! A1    A(2,1,6)              119.3776         estimate D2E/DX2                !
 ! A2    A(2,1,8)              120.2481         estimate D2E/DX2                !
 ! A3    A(6,1,8)              120.3743         estimate D2E/DX2                !
 ! A4    A(1,2,3)              120.2983         estimate D2E/DX2                !
 ! A5    A(1,2,9)              119.6418         estimate D2E/DX2                !
 ! A6    A(3,2,9)              120.0599         estimate D2E/DX2                !
 ! A7    A(2,3,4)              119.9947         estimate D2E/DX2                !
 ! A8    A(2,3,10)             120.0026         estimate D2E/DX2                !
 ! A9    A(4,3,10)             120.0026         estimate D2E/DX2                !
 ! A10   A(3,4,5)              120.2983         estimate D2E/DX2                !
 ! A11   A(3,4,11)             120.0599         estimate D2E/DX2                !
 ! A12   A(5,4,11)             119.6418         estimate D2E/DX2                !
 ! A13   A(4,5,6)              119.3776         estimate D2E/DX2                !
 ! A14   A(4,5,12)             120.2481         estimate D2E/DX2                !
 ! A15   A(6,5,12)             120.3743         estimate D2E/DX2                !
 ! A16   A(1,6,5)              120.6536         estimate D2E/DX2                !
 ! A17   A(1,6,7)              119.6732         estimate D2E/DX2                !
 ! A18   A(5,6,7)              119.6732         estimate D2E/DX2                !
 ! D1    D(6,1,2,3)              0.0            estimate D2E/DX2                !
 ! D2    D(6,1,2,9)            180.0            estimate D2E/DX2                !
 ! D3    D(8,1,2,3)            180.0            estimate D2E/DX2                !
 ! D4    D(8,1,2,9)              0.0            estimate D2E/DX2                !
 ! D5    D(2,1,6,5)              0.0            estimate D2E/DX2                !
 ! D6    D(2,1,6,7)            180.0            estimate D2E/DX2                !
 ! D7    D(8,1,6,5)            180.0            estimate D2E/DX2                !
 ! D8    D(8,1,6,7)              0.0            estimate D2E/DX2                !
 ! D9    D(1,2,3,4)              0.0            estimate D2E/DX2                !
 ! D10   D(1,2,3,10)           180.0            estimate D2E/DX2                !
 ! D11   D(9,2,3,4)            180.0            estimate D2E/DX2                !
 ! D12   D(9,2,3,10)             0.0            estimate D2E/DX2                !
 ! D13   D(2,3,4,5)              0.0            estimate D2E/DX2                !
 ! D14   D(2,3,4,11)           180.0            estimate D2E/DX2                !
 ! D15   D(10,3,4,5)           180.0            estimate D2E/DX2                !
 ! D16   D(10,3,4,11)            0.0            estimate D2E/DX2                !
 ! D17   D(3,4,5,6)              0.0            estimate D2E/DX2                !
 ! D18   D(3,4,5,12)           180.0            estimate D2E/DX2                !
 ! D19   D(11,4,5,6)           180.0            estimate D2E/DX2                !
 ! D20   D(11,4,5,12)            0.0            estimate D2E/DX2                !
 ! D21   D(4,5,6,1)              0.0            estimate D2E/DX2                !
 ! D22   D(4,5,6,7)            180.0            estimate D2E/DX2                !
 ! D23   D(12,5,6,1)           180.0            estimate D2E/DX2                !
 ! D24   D(12,5,6,7)             0.0            estimate D2E/DX2                !
 --------------------------------------------------------------------------------
 Trust Radius=3.00D-01 FncErr=1.00D-07 GrdErr=1.00D-06 EigMax=2.50D+02 EigMin=1.00D-04
 Number of steps in this run=     64 maximum allowed number of steps=    100.
 GradGradGradGradGradGradGradGradGradGradGradGradGradGradGradGradGradGrad

                          Input orientation:                          
 ---------------------------------------------------------------------
 Center     Atomic      Atomic             Coordinates (Angstroms)
 Number     Number       Type             X           Y           Z
 ---------------------------------------------------------------------
      1          6           0       -3.161083    0.226255    0.000000
      2          6           0       -1.969443    0.950155    0.000000
      3          6           0       -0.742716    0.286208    0.000000
      4          6           0       -0.704476   -1.108145    0.000000
      5          6           0       -1.888582   -1.844304    0.000000
      6          6           0       -3.114704   -1.171542   -0.000000
      7         17           0       -4.563947   -2.062201   -0.000000
      8          1           0       -4.128228    0.750802   -0.000000
      9          1           0       -2.000854    2.049849    0.000000
     10          1           0        0.194342    0.862095    0.000000
     11          1           0        0.262448   -1.632902    0.000000
     12          1           0       -1.857456   -2.944099   -0.000000
 ---------------------------------------------------------------------
                    Distance matrix (angstroms):
                    1          2          3          4          5
     1  C    0.000000
     2  C    1.394287   0.000000
     3  C    2.419110   1.394878   0.000000
     4  C    2.795629   2.415935   1.394878   0.000000
     5  C    2.430324   2.795629   2.419110   1.394287   0.000000
     6  C    1.398566   2.411062   2.784127   2.411062   1.398566
     7  Cl   2.684224   3.975644   4.485179   3.975644   2.684224
     8  H    1.100236   2.167970   3.417242   3.895865   3.427914
     9  H    2.161394   1.100142   2.166412   3.413726   3.895771
    10  H    3.415138   2.165576   1.099874   2.165576   3.415138
    11  H    3.895771   3.413726   2.166411   1.100142   2.161394
    12  H    3.427913   3.895864   3.417240   2.167969   1.100235
                    6          7          8          9         10
     6  C    0.000000
     7  Cl   1.701052   0.000000
     8  H    2.173163   2.846549   0.000000
     9  H    3.408522   4.845451   2.492637   0.000000
    10  H    3.884001   5.585053   4.324002   2.495926   0.000000
    11  H    3.408521   4.845451   4.996007   4.322637   2.495926
    12  H    2.173162   2.846549   4.336900   4.996007   4.324002
                   11         12
    11  H    0.000000
    12  H    2.492636   0.000000
 Stoichiometry    C6H5Cl
 Framework group  CS[SG(C6H5Cl)]
 Deg. of freedom    21
 Full point group                 CS      NOp   2
 Largest Abelian subgroup         CS      NOp   2
 Largest concise Abelian subgroup C1      NOp   1
                         Standard orientation:                         
 ---------------------------------------------------------------------
 Center     Atomic      Atomic             Coordinates (Angstroms)
 Number     Number       Type             X           Y           Z
 ---------------------------------------------------------------------
      1          6           0       -1.215162   -0.165187    0.000000
      2          6           0       -1.207968   -1.559456    0.000000
      3          6           0        0.000000   -2.256951    0.000000
      4          6           0        1.207968   -1.559456    0.000000
      5          6           0        1.215162   -0.165187    0.000000
      6          6           0        0.000000    0.527176   -0.000000
      7         17           0        0.000000    2.228229   -0.000000
      8          1           0       -2.168450    0.384140   -0.000000
      9          1           0       -2.161319   -2.108487    0.000000
     10          1           0       -0.000000   -3.356825    0.000000
     11          1           0        2.161318   -2.108486    0.000000
     12          1           0        2.168450    0.384139   -0.000000
 ---------------------------------------------------------------------
 Rotational constants (GHZ):           5.6559859           1.5942160           1.2436706
 Standard basis: 6-311++G(d,p) (5D, 7F)
 There are   155 symmetry adapted cartesian basis functions of A'  symmetry.
 There are    49 symmetry adapted cartesian basis functions of A"  symmetry.
 There are   148 symmetry adapted basis functions of A'  symmetry.
 There are    49 symmetry adapted basis functions of A"  symmetry.
   197 basis functions,   314 primitive gaussians,   204 cartesian basis functions
    29 alpha electrons       29 beta electrons
       nuclear repulsion energy       316.4153118829 Hartrees.
 NAtoms=   12 NActive=   12 NUniq=   12 SFac= 1.00D+00 NAtFMM=   60 NAOKFM=F Big=F
 Integral buffers will be    131072 words long.
 Raffenetti 2 integral format.
 Two-electron integral symmetry is turned on.
 One-electron integrals computed using PRISM.
 NBasis=   197 RedAO= T EigKep=  1.10D-06  NBF=   148    49
 NBsUse=   197 1.00D-06 EigRej= -1.00D+00 NBFU=   148    49
 Initial guess from the checkpoint file:  "frequency_chks/1ClBz_Freq.chk"
 B after Tr=     0.000000    0.000000    0.000000
         Rot=    1.000000    0.000000   -0.000000    0.000000 Ang=   0.00 deg.
 Initial guess orbital symmetries:
       Occupied  (A') (A') (A') (A') (A') (A') (A') (A') (A') (A')
                 (A') (A") (A') (A') (A") (A') (A") (A") (A") (A")
                 (A') (A") (A') (A') (A') (A') (A') (A') (A')
       Virtual   (A') (A') (A') (A') (A') (A') (A') (A') (A') (A')
                 (A') (A') (A') (A') (A') (A') (A') (A') (A') (A')
                 (A') (A') (A') (A') (A') (A') (A') (A') (A') (A')
                 (A') (A') (A') (A') (A') (A') (A') (A') (A') (A')
                 (A') (A') (A') (A') (A') (A') (A') (A') (A') (A')
                 (A') (A') (A') (A') (A') (A') (A') (A') (A') (A')
                 (A') (A') (A') (A') (A') (A') (A') (A') (A') (A')
                 (A') (A') (A') (A') (A') (A') (A') (A') (A') (A')
                 (A') (A') (A') (A') (A') (A') (A') (A') (A') (A')
                 (A') (A') (A') (A') (A') (A') (A') (A') (A') (A')
                 (A') (A') (A') (A') (A') (A') (A') (A') (A') (A')
                 (A') (A') (A') (A') (A') (A') (A') (A') (A') (A')
                 (A') (A') (A') (A') (A') (A') (A") (A") (A") (A")
                 (A") (A") (A") (A") (A") (A") (A") (A") (A") (A")
                 (A") (A") (A") (A") (A") (A") (A") (A") (A") (A")
                 (A") (A") (A") (A") (A") (A") (A") (A") (A") (A")
                 (A") (A") (A") (A") (A") (A") (A") (A")
 Keep R1 ints in memory in symmetry-blocked form, NReq=291585601.
 Requested convergence on RMS density matrix=1.00D-08 within 128 cycles.
 Requested convergence on MAX density matrix=1.00D-06.
 Requested convergence on             energy=1.00D-06.
 No special actions if energy rises.
 EnCoef did     5 forward-backward iterations
 SCF Done:  E(RM062X) =  -691.797693289     A.U. after   23 cycles
            NFock= 23  Conv=0.90D-08     -V/T= 2.0030

 **********************************************************************

            Population analysis using the SCF Density.

 **********************************************************************

 Orbital symmetries:
       Occupied  (A') (A') (A') (A') (A') (A') (A') (A') (A') (A")
                 (A') (A') (A') (A') (A') (A') (A') (A') (A') (A')
                 (A') (A') (A") (A') (A') (A") (A') (A") (A")
       Virtual   (A') (A") (A") (A') (A') (A') (A') (A') (A") (A')
                 (A') (A") (A") (A') (A') (A") (A') (A') (A') (A")
                 (A') (A") (A') (A') (A') (A") (A') (A') (A') (A')
                 (A") (A') (A') (A') (A') (A') (A') (A') (A') (A')
                 (A') (A') (A') (A') (A') (A') (A') (A") (A') (A')
                 (A') (A") (A') (A') (A') (A') (A") (A") (A') (A')
                 (A") (A") (A") (A') (A') (A') (A') (A') (A') (A')
                 (A") (A') (A') (A') (A') (A') (A') (A") (A') (A')
                 (A') (A') (A") (A") (A') (A") (A") (A") (A') (A')
                 (A') (A") (A') (A') (A') (A') (A") (A") (A') (A")
                 (A') (A') (A') (A') (A") (A") (A') (A') (A") (A")
                 (A') (A') (A') (A") (A') (A') (A") (A') (A") (A')
                 (A") (A") (A') (A') (A') (A') (A') (A') (A') (A')
                 (A") (A') (A') (A') (A') (A') (A") (A") (A') (A')
                 (A") (A") (A') (A") (A') (A') (A') (A') (A') (A')
                 (A') (A') (A') (A') (A') (A') (A') (A') (A') (A')
                 (A') (A') (A') (A') (A") (A') (A') (A')
 The electronic state is 1-A'.
 Alpha  occ. eigenvalues -- -102.67869 -10.61238 -10.56310 -10.56308 -10.56145
 Alpha  occ. eigenvalues --  -10.56138 -10.55741  -9.82224  -7.54732  -7.54064
 Alpha  occ. eigenvalues --   -7.54050  -1.00816  -0.94569  -0.85931  -0.83052
 Alpha  occ. eigenvalues --   -0.70617  -0.68626  -0.60379  -0.54372  -0.54267
 Alpha  occ. eigenvalues --   -0.50299  -0.50221  -0.47643  -0.42606  -0.42596
 Alpha  occ. eigenvalues --   -0.40706  -0.38013  -0.32332  -0.30206
 Alpha virt. eigenvalues --   -0.00328   0.00410   0.00452   0.00983   0.01523
 Alpha virt. eigenvalues --    0.03406   0.03471   0.05570   0.06246   0.06860
 Alpha virt. eigenvalues --    0.08891   0.08895   0.09159   0.09763   0.11929
 Alpha virt. eigenvalues --    0.12594   0.12795   0.12867   0.13581   0.13769
 Alpha virt. eigenvalues --    0.13837   0.14746   0.14913   0.15563   0.15571
 Alpha virt. eigenvalues --    0.15823   0.16032   0.18249   0.18467   0.20989
 Alpha virt. eigenvalues --    0.21098   0.21769   0.22207   0.24161   0.24169
 Alpha virt. eigenvalues --    0.26024   0.26939   0.28702   0.29175   0.29743
 Alpha virt. eigenvalues --    0.30609   0.32408   0.35956   0.36307   0.37150
 Alpha virt. eigenvalues --    0.37722   0.47689   0.48640   0.48672   0.50387
 Alpha virt. eigenvalues --    0.51612   0.55716   0.57364   0.57986   0.58378
 Alpha virt. eigenvalues --    0.58481   0.59648   0.61275   0.62815   0.63816
 Alpha virt. eigenvalues --    0.64320   0.64525   0.70507   0.71554   0.75221
 Alpha virt. eigenvalues --    0.75990   0.77048   0.81175   0.81691   0.86489
 Alpha virt. eigenvalues --    0.86765   0.87384   0.88443   0.90180   0.91119
 Alpha virt. eigenvalues --    0.92347   0.92582   0.92798   0.93171   0.98925
 Alpha virt. eigenvalues --    1.00901   1.03290   1.03712   1.04949   1.08508
 Alpha virt. eigenvalues --    1.11993   1.16058   1.18016   1.21332   1.23739
 Alpha virt. eigenvalues --    1.34161   1.36003   1.41719   1.50697   1.54505
 Alpha virt. eigenvalues --    1.54612   1.59562   1.60004   1.60194   1.65034
 Alpha virt. eigenvalues --    1.67518   1.67839   1.71529   1.74970   1.75501
 Alpha virt. eigenvalues --    1.78613   1.84679   1.89764   1.94190   1.94649
 Alpha virt. eigenvalues --    1.94961   1.96152   1.98135   2.00969   2.02457
 Alpha virt. eigenvalues --    2.05465   2.08434   2.09668   2.26384   2.29138
 Alpha virt. eigenvalues --    2.33681   2.34687   2.41551   2.44666   2.44724
 Alpha virt. eigenvalues --    2.46816   2.53652   2.58135   2.62066   2.65358
 Alpha virt. eigenvalues --    2.70380   2.71495   2.72952   2.75702   2.76437
 Alpha virt. eigenvalues --    2.80627   2.83733   2.84033   2.84337   2.84599
 Alpha virt. eigenvalues --    2.93456   2.93869   2.94740   3.12299   3.18128
 Alpha virt. eigenvalues --    3.27576   3.37486   3.40397   3.51338   3.52769
 Alpha virt. eigenvalues --    3.61523   3.82610   3.99968   4.06447   4.14577
 Alpha virt. eigenvalues --    4.15701   4.83991   9.98428  23.59337  23.96767
 Alpha virt. eigenvalues --   24.01650  24.11125  24.14353  24.23530  25.93803
 Alpha virt. eigenvalues --   26.25121  26.75723 216.08533
          Condensed to atoms (all electrons):
               1          2          3          4          5          6
     1  C   13.140401   0.025000   0.843115  -1.626086  -4.554310  -1.909732
     2  C    0.025000   7.147419  -0.537310   0.940685  -1.626087   0.103132
     3  C    0.843115  -0.537310   6.901762  -0.537309   0.843116  -1.888190
     4  C   -1.626086   0.940685  -0.537309   7.147416   0.025003   0.103129
     5  C   -4.554310  -1.626087   0.843116   0.025003  13.140409  -1.909743
     6  C   -1.909732   0.103132  -1.888190   0.103129  -1.909743  12.251817
     7  Cl  -0.003940   0.116676   0.063776   0.116676  -0.003940  -0.885258
     8  H    0.515583   0.025006   0.027472  -0.003897  -0.124207  -0.136393
     9  H    0.008861   0.284457   0.022845  -0.038289   0.061363  -0.003058
    10  H   -0.018666   0.005632   0.330915   0.005632  -0.018666   0.020295
    11  H    0.061363  -0.038289   0.022845   0.284457   0.008861  -0.003058
    12  H   -0.124207  -0.003897   0.027472   0.025006   0.515584  -0.136393
               7          8          9         10         11         12
     1  C   -0.003940   0.515583   0.008861  -0.018666   0.061363  -0.124207
     2  C    0.116676   0.025006   0.284457   0.005632  -0.038289  -0.003897
     3  C    0.063776   0.027472   0.022845   0.330915   0.022845   0.027472
     4  C    0.116676  -0.003897  -0.038289   0.005632   0.284457   0.025006
     5  C   -0.003940  -0.124207   0.061363  -0.018666   0.008861   0.515584
     6  C   -0.885258  -0.136393  -0.003058   0.020295  -0.003058  -0.136393
     7  Cl  17.278850   0.015115  -0.005475   0.000847  -0.005475   0.015115
     8  H    0.015115   0.483702  -0.006312   0.000017   0.001942  -0.003134
     9  H   -0.005475  -0.006312   0.464927   0.001595  -0.002392   0.001942
    10  H    0.000847   0.000017   0.001595   0.470430   0.001595   0.000017
    11  H   -0.005475   0.001942  -0.002392   0.001595   0.464927  -0.006312
    12  H    0.015115  -0.003134   0.001942   0.000017  -0.006312   0.483702
 Mulliken charges:
               1
     1  C   -0.357382
     2  C   -0.442425
     3  C   -0.120510
     4  C   -0.442424
     5  C   -0.357383
     6  C    0.393452
     7  Cl   0.297034
     8  H    0.205105
     9  H    0.209535
    10  H    0.200357
    11  H    0.209535
    12  H    0.205105
 Sum of Mulliken charges =  -0.00000
 Mulliken charges with hydrogens summed into heavy atoms:
               1
     1  C   -0.152277
     2  C   -0.232889
     3  C    0.079847
     4  C   -0.232889
     5  C   -0.152278
     6  C    0.393452
     7  Cl   0.297034
 Electronic spatial extent (au):  <R**2>=            892.0473
 Charge=             -0.0000 electrons
 Dipole moment (field-independent basis, Debye):
    X=              0.0000    Y=             -1.6719    Z=              0.0000  Tot=              1.6719
 Quadrupole moment (field-independent basis, Debye-Ang):
   XX=            -42.2900   YY=            -45.9077   ZZ=            -52.1590
   XY=             -0.0000   XZ=             -0.0000   YZ=              0.0000
 Traceless Quadrupole moment (field-independent basis, Debye-Ang):
   XX=              4.4955   YY=              0.8778   ZZ=             -5.3734
   XY=             -0.0000   XZ=             -0.0000   YZ=              0.0000
 Octapole moment (field-independent basis, Debye-Ang**2):
  XXX=              0.0000  YYY=             -3.9428  ZZZ=              0.0000  XYY=             -0.0000
  XXY=             -1.3228  XXZ=              0.0000  XZZ=              0.0000  YZZ=              7.4756
  YYZ=              0.0000  XYZ=             -0.0000
 Hexadecapole moment (field-independent basis, Debye-Ang**3):
 XXXX=           -278.6024 YYYY=           -776.5183 ZZZZ=            -61.8853 XXXY=             -0.0000
 XXXZ=             -0.0000 YYYX=              0.0000 YYYZ=              0.0000 ZZZX=             -0.0000
 ZZZY=              0.0000 XXYY=           -180.1436 XXZZ=            -69.6526 YYZZ=           -162.6515
 XXYZ=              0.0000 YYXZ=             -0.0000 ZZXY=             -0.0000
 N-N= 3.164153118829D+02 E-N=-2.263708259267D+03  KE= 6.897498157812D+02
 Symmetry A'   KE= 6.375206914178D+02
 Symmetry A"   KE= 5.222912436340D+01
 Calling FoFJK, ICntrl=      2127 FMM=F ISym2X=1 I1Cent= 0 IOpClX= 0 NMat=1 NMatS=1 NMatT=0.
 ***** Axes restored to original set *****
 -------------------------------------------------------------------
 Center     Atomic                   Forces (Hartrees/Bohr)
 Number     Number              X              Y              Z
 -------------------------------------------------------------------
      1        6          -0.005252553    0.002566010   -0.000000000
      2        6           0.000506735    0.005400096    0.000000000
      3        6           0.007129478    0.004381675    0.000000000
      4        6           0.005046328   -0.001987087    0.000000000
      5        6          -0.000083142   -0.005844713   -0.000000000
      6        6           0.022733415    0.013971380    0.000000000
      7       17          -0.017899996   -0.011000792   -0.000000000
      8        1           0.009400874   -0.007084262    0.000000000
      9        1          -0.000058734   -0.011195638   -0.000000000
     10        1          -0.009433820   -0.005797752   -0.000000000
     11        1          -0.010014580    0.005004521   -0.000000000
     12        1          -0.002074004    0.011586561    0.000000000
 -------------------------------------------------------------------
 Cartesian Forces:  Max     0.022733415 RMS     0.007455504

 GradGradGradGradGradGradGradGradGradGradGradGradGradGradGradGradGradGrad
 Berny optimization.
 FormGI is forming the generalized inverse of G from B-inverse, IUseBI=4.
 Internal  Forces:  Max     0.021010171 RMS     0.004875612
 Search for a local minimum.
 Step number   1 out of a maximum of   64
 All quantities printed in internal units (Hartrees-Bohrs-Radians)
 Mixed Optimization -- RFO/linear search
 Second derivative matrix not updated -- first step.
 ITU=  0
     Eigenvalues ---    0.02108   0.02119   0.02133   0.02138   0.02151
     Eigenvalues ---    0.02157   0.02159   0.02160   0.02161   0.16000
     Eigenvalues ---    0.16000   0.16000   0.16000   0.16000   0.22000
     Eigenvalues ---    0.22000   0.23489   0.25000   0.33656   0.33656
     Eigenvalues ---    0.33666   0.33666   0.33696   0.35764   0.42028
     Eigenvalues ---    0.42123   0.45988   0.46190   0.46501   0.46581
 RFO step:  Lambda=-3.60620478D-03 EMin= 2.10772897D-02
 Linear search not attempted -- first point.
 Iteration  1 RMS(Cart)=  0.01579303 RMS(Int)=  0.00006053
 Iteration  2 RMS(Cart)=  0.00007412 RMS(Int)=  0.00000050
 Iteration  3 RMS(Cart)=  0.00000001 RMS(Int)=  0.00000050
 ClnCor:  largest displacement from symmetrization is 1.03D-10 for atom     7.
 Variable       Old X    -DE/DX   Delta X   Delta X   Delta X     New X
                                 (Linear)    (Quad)   (Total)
    R1        2.63482  -0.00400   0.00000  -0.00852  -0.00852   2.62630
    R2        2.64291  -0.00731   0.00000  -0.01612  -0.01612   2.62679
    R3        2.07915  -0.01164   0.00000  -0.03422  -0.03422   2.04492
    R4        2.63594  -0.00449   0.00000  -0.00927  -0.00927   2.62667
    R5        2.07897  -0.01119   0.00000  -0.03288  -0.03288   2.04608
    R6        2.63594  -0.00449   0.00000  -0.00927  -0.00927   2.62667
    R7        2.07846  -0.01107   0.00000  -0.03251  -0.03251   2.04595
    R8        2.63482  -0.00400   0.00000  -0.00852  -0.00852   2.62630
    R9        2.07897  -0.01119   0.00000  -0.03288  -0.03288   2.04608
   R10        2.64291  -0.00731   0.00000  -0.01612  -0.01612   2.62679
   R11        2.07914  -0.01164   0.00000  -0.03422  -0.03422   2.04492
   R12        3.21452   0.02101   0.00000   0.05816   0.05816   3.27268
    A1        2.08353   0.00045   0.00000   0.00133   0.00133   2.08486
    A2        2.09873   0.00159   0.00000   0.01043   0.01043   2.10915
    A3        2.10093  -0.00204   0.00000  -0.01175  -0.01175   2.08917
    A4        2.09960   0.00037   0.00000   0.00228   0.00228   2.10188
    A5        2.08814  -0.00058   0.00000  -0.00354  -0.00354   2.08460
    A6        2.09544   0.00021   0.00000   0.00127   0.00127   2.09671
    A7        2.09430  -0.00170   0.00000  -0.00633  -0.00633   2.08797
    A8        2.09444   0.00085   0.00000   0.00316   0.00317   2.09761
    A9        2.09444   0.00085   0.00000   0.00316   0.00317   2.09761
   A10        2.09960   0.00037   0.00000   0.00228   0.00228   2.10188
   A11        2.09544   0.00021   0.00000   0.00127   0.00127   2.09671
   A12        2.08814  -0.00058   0.00000  -0.00354  -0.00354   2.08460
   A13        2.08353   0.00045   0.00000   0.00133   0.00133   2.08486
   A14        2.09873   0.00159   0.00000   0.01043   0.01043   2.10915
   A15        2.10093  -0.00204   0.00000  -0.01175  -0.01175   2.08917
   A16        2.10580   0.00007   0.00000  -0.00088  -0.00087   2.10493
   A17        2.08869  -0.00004   0.00000   0.00044   0.00044   2.08913
   A18        2.08869  -0.00004   0.00000   0.00044   0.00044   2.08913
    D1       -0.00000   0.00000   0.00000  -0.00000   0.00000   0.00000
    D2        3.14159   0.00000   0.00000   0.00000   0.00000   3.14159
    D3        3.14159   0.00000   0.00000  -0.00000   0.00000   3.14159
    D4       -0.00000   0.00000   0.00000  -0.00000   0.00000   0.00000
    D5        0.00000  -0.00000   0.00000   0.00000   0.00000   0.00000
    D6        3.14159   0.00000   0.00000  -0.00000   0.00000   3.14159
    D7        3.14159   0.00000   0.00000   0.00000   0.00000   3.14159
    D8       -0.00000  -0.00000   0.00000  -0.00000   0.00000   0.00000
    D9       -0.00000   0.00000   0.00000   0.00000   0.00000   0.00000
   D10        3.14159  -0.00000   0.00000   0.00000   0.00000   3.14159
   D11        3.14159  -0.00000   0.00000  -0.00000   0.00000   3.14159
   D12       -0.00000  -0.00000   0.00000  -0.00000   0.00000   0.00000
   D13        0.00000  -0.00000   0.00000  -0.00000   0.00000   0.00000
   D14        3.14159  -0.00000   0.00000   0.00000   0.00000   3.14159
   D15        3.14159   0.00000   0.00000   0.00000   0.00000   3.14159
   D16        0.00000   0.00000   0.00000   0.00000   0.00000   0.00000
   D17       -0.00000   0.00000   0.00000   0.00000   0.00000   0.00000
   D18        3.14159  -0.00000   0.00000   0.00000   0.00000   3.14159
   D19        3.14159  -0.00000   0.00000  -0.00000   0.00000   3.14159
   D20        0.00000  -0.00000   0.00000  -0.00000   0.00000   0.00000
   D21       -0.00000  -0.00000   0.00000  -0.00000   0.00000   0.00000
   D22        3.14159   0.00000   0.00000   0.00000   0.00000   3.14159
   D23        3.14159   0.00000   0.00000  -0.00000   0.00000   3.14159
   D24        0.00000   0.00000   0.00000   0.00000  -0.00000   0.00000
         Item               Value     Threshold  Converged?
 Maximum Force            0.021010     0.000450     NO 
 RMS     Force            0.004876     0.000300     NO 
 Maximum Displacement     0.053824     0.001800     NO 
 RMS     Displacement     0.015796     0.001200     NO 
 Predicted change in Energy=-1.821817D-03
 GradGradGradGradGradGradGradGradGradGradGradGradGradGradGradGradGradGrad

                          Input orientation:                          
 ---------------------------------------------------------------------
 Center     Atomic      Atomic             Coordinates (Angstroms)
 Number     Number       Type             X           Y           Z
 ---------------------------------------------------------------------
      1          6           0       -3.150394    0.223770    0.000000
      2          6           0       -1.963250    0.946385    0.000000
      3          6           0       -0.738750    0.288646    0.000000
      4          6           0       -0.705042   -1.100917    0.000000
      5          6           0       -1.885970   -1.833646    0.000000
      6          6           0       -3.104906   -1.165520   -0.000000
      7         17           0       -4.580370   -2.072294   -0.000000
      8          1           0       -4.107397    0.728887   -0.000000
      9          1           0       -1.998960    2.028536    0.000000
     10          1           0        0.183649    0.855524    0.000000
     11          1           0        0.244290   -1.621585    0.000000
     12          1           0       -1.867599   -2.915617   -0.000000
 ---------------------------------------------------------------------
                    Distance matrix (angstroms):
                    1          2          3          4          5
     1  C    0.000000
     2  C    1.389778   0.000000
     3  C    2.412517   1.389972   0.000000
     4  C    2.781104   2.403025   1.389972   0.000000
     5  C    2.414897   2.781104   2.412517   1.389778   0.000000
     6  C    1.390035   2.400733   2.777281   2.400733   1.390035
     7  Cl   2.704948   3.995214   4.509111   3.995214   2.704948
     8  H    1.082127   2.155150   3.397293   3.863186   3.391359
     9  H    2.140790   1.082741   2.148336   3.386399   3.863835
    10  H    3.393370   2.148821   1.082669   2.148821   3.393370
    11  H    3.863835   3.386400   2.148336   1.082741   2.140790
    12  H    3.391359   3.863186   3.397293   2.155150   1.082127
                    6          7          8          9         10
     6  C    0.000000
     7  Cl   1.731829   0.000000
     8  H    2.143308   2.840831   0.000000
     9  H    3.380106   4.845667   2.476812   0.000000
    10  H    3.859950   5.591779   4.292915   2.477850   0.000000
    11  H    3.380105   4.845667   4.945898   4.284338   2.477851
    12  H    2.143308   2.840831   4.277746   4.945898   4.292915
                   11         12
    11  H    0.000000
    12  H    2.476812   0.000000
 Stoichiometry    C6H5Cl
 Framework group  CS[SG(C6H5Cl)]
 Deg. of freedom    21
 Full point group                 CS      NOp   2
 Largest Abelian subgroup         CS      NOp   2
 Largest concise Abelian subgroup C1      NOp   1
                         Standard orientation:                         
 ---------------------------------------------------------------------
 Center     Atomic      Atomic             Coordinates (Angstroms)
 Number     Number       Type             X           Y           Z
 ---------------------------------------------------------------------
      1          6           0       -0.175003    1.207449    0.000000
      2          6           0       -1.564768    1.201513    0.000000
      3          6           0       -2.263616   -0.000000    0.000000
      4          6           0       -1.564768   -1.201513    0.000000
      5          6           0       -0.175003   -1.207449    0.000000
      6          6           0        0.513666   -0.000000    0.000000
      7         17           0        2.245495    0.000000    0.000000
      8          1           0        0.375858    2.138873    0.000000
      9          1           0       -2.100952    2.142169    0.000000
     10          1           0       -3.346284   -0.000000    0.000000
     11          1           0       -2.100951   -2.142169    0.000000
     12          1           0        0.375858   -2.138873    0.000000
 ---------------------------------------------------------------------
 Rotational constants (GHZ):           5.7358838           1.5781691           1.2376441
 Standard basis: 6-311++G(d,p) (5D, 7F)
 There are   155 symmetry adapted cartesian basis functions of A'  symmetry.
 There are    49 symmetry adapted cartesian basis functions of A"  symmetry.
 There are   148 symmetry adapted basis functions of A'  symmetry.
 There are    49 symmetry adapted basis functions of A"  symmetry.
   197 basis functions,   314 primitive gaussians,   204 cartesian basis functions
    29 alpha electrons       29 beta electrons
       nuclear repulsion energy       316.4883085353 Hartrees.
 NAtoms=   12 NActive=   12 NUniq=   12 SFac= 1.00D+00 NAtFMM=   60 NAOKFM=F Big=F
 Integral buffers will be    131072 words long.
 Raffenetti 2 integral format.
 Two-electron integral symmetry is turned on.
 One-electron integrals computed using PRISM.
 NBasis=   197 RedAO= T EigKep=  1.09D-06  NBF=   148    49
 NBsUse=   197 1.00D-06 EigRej= -1.00D+00 NBFU=   148    49
 Initial guess from the checkpoint file:  "frequency_chks/1ClBz_Freq.chk"
 B after Tr=    -0.000000    0.000000    0.000000
         Rot=    0.707107   -0.000000    0.000000    0.707107 Ang=  90.00 deg.
 Initial guess orbital symmetries:
       Occupied  (A') (A') (A') (A') (A') (A') (A') (A') (A') (A")
                 (A') (A') (A') (A') (A') (A') (A') (A') (A') (A')
                 (A') (A') (A") (A') (A') (A") (A') (A") (A")
       Virtual   (A') (A") (A") (A') (A') (A') (A') (A') (A") (A')
                 (A') (A") (A") (A') (A') (A") (A') (A') (A') (A")
                 (A') (A") (A') (A') (A') (A") (A') (A') (A') (A')
                 (A") (A') (A') (A') (A') (A') (A') (A') (A') (A')
                 (A') (A') (A') (A') (A') (A') (A') (A") (A') (A')
                 (A') (A") (A') (A') (A') (A') (A") (A") (A') (A')
                 (A") (A") (A") (A') (A') (A') (A') (A') (A') (A')
                 (A") (A') (A') (A') (A') (A') (A') (A") (A') (A')
                 (A') (A') (A") (A") (A') (A") (A") (A") (A') (A')
                 (A') (A") (A') (A') (A') (A') (A") (A") (A') (A")
                 (A') (A') (A') (A') (A") (A") (A') (A') (A") (A")
                 (A') (A') (A') (A") (A') (A') (A") (A') (A") (A')
                 (A") (A") (A') (A') (A') (A') (A') (A') (A') (A')
                 (A") (A') (A') (A') (A') (A') (A") (A") (A') (A')
                 (A") (A") (A') (A") (A') (A') (A') (A') (A') (A')
                 (A') (A') (A') (A') (A') (A') (A') (A') (A') (A')
                 (A') (A') (A') (A') (A") (A') (A') (A')
 ExpMin= 3.60D-02 ExpMax= 1.06D+05 ExpMxC= 3.62D+03 IAcc=3 IRadAn=         5 AccDes= 0.00D+00
 Harris functional with IExCor= 1009 and IRadAn=       5 diagonalized for initial guess.
 HarFok:  IExCor= 1009 AccDes= 0.00D+00 IRadAn=         5 IDoV= 1 UseB2=F ITyADJ=14
 ICtDFT=  3500011 ScaDFX=  1.000000  1.000000  1.000000  1.000000
 FoFCou: FMM=F IPFlag=           0 FMFlag=      100000 FMFlg1=           0
         NFxFlg=           0 DoJE=T BraDBF=F KetDBF=T FulRan=T
         wScrn=  0.000000 ICntrl=       500 IOpCl=  0 I1Cent=   200000004 NGrid=           0
         NMat0=    1 NMatS0=      1 NMatT0=    0 NMatD0=    1 NMtDS0=    0 NMtDT0=    0
 Petite list used in FoFCou.
 Keep R1 ints in memory in symmetry-blocked form, NReq=291585601.
 Requested convergence on RMS density matrix=1.00D-08 within 128 cycles.
 Requested convergence on MAX density matrix=1.00D-06.
 Requested convergence on             energy=1.00D-06.
 No special actions if energy rises.
 SCF Done:  E(RM062X) =  -691.799610703     A.U. after   12 cycles
            NFock= 12  Conv=0.97D-08     -V/T= 2.0027
 Calling FoFJK, ICntrl=      2127 FMM=F ISym2X=1 I1Cent= 0 IOpClX= 0 NMat=1 NMatS=1 NMatT=0.
 ***** Axes restored to original set *****
 -------------------------------------------------------------------
 Center     Atomic                   Forces (Hartrees/Bohr)
 Number     Number              X              Y              Z
 -------------------------------------------------------------------
      1        6          -0.002339530   -0.000230474   -0.000000000
      2        6           0.000250257   -0.000012239   -0.000000000
      3        6           0.000240872    0.000148080   -0.000000000
      4        6           0.000102077    0.000228709   -0.000000000
      5        6          -0.001262288   -0.001983154    0.000000000
      6        6           0.007725661    0.004747991   -0.000000000
      7       17          -0.004310956   -0.002649384    0.000000000
      8        1          -0.000438474    0.000102025   -0.000000000
      9        1          -0.000273174    0.000389958   -0.000000000
     10        1           0.000188094    0.000115588   -0.000000000
     11        1           0.000224510   -0.000419844    0.000000000
     12        1          -0.000107050   -0.000437257    0.000000000
 -------------------------------------------------------------------
 Cartesian Forces:  Max     0.007725661 RMS     0.001825730

 GradGradGradGradGradGradGradGradGradGradGradGradGradGradGradGradGradGrad
 Berny optimization.
 Using GEDIIS/GDIIS optimizer.
 FormGI is forming the generalized inverse of G from B-inverse, IUseBI=4.
 Internal  Forces:  Max     0.005059997 RMS     0.000894436
 Search for a local minimum.
 Step number   2 out of a maximum of   64
 All quantities printed in internal units (Hartrees-Bohrs-Radians)
 Mixed Optimization -- En-DIIS/RFO-DIIS
 Update second derivatives using D2CorX and points    1    2
 DE= -1.92D-03 DEPred=-1.82D-03 R= 1.05D+00
 TightC=F SS=  1.41D+00  RLast= 1.02D-01 DXNew= 5.0454D-01 3.0563D-01
 Trust test= 1.05D+00 RLast= 1.02D-01 DXMaxT set to 3.06D-01
 ITU=  1  0
 Use linear search instead of GDIIS.
     Eigenvalues ---    0.02108   0.02119   0.02133   0.02139   0.02151
     Eigenvalues ---    0.02157   0.02159   0.02160   0.02161   0.15891
     Eigenvalues ---    0.16000   0.16000   0.16000   0.16026   0.21952
     Eigenvalues ---    0.22000   0.22929   0.25000   0.30890   0.33656
     Eigenvalues ---    0.33661   0.33666   0.33692   0.37031   0.41927
     Eigenvalues ---    0.42074   0.45987   0.46458   0.46501   0.47899
 RFO step:  Lambda=-1.41542236D-04 EMin= 2.10772897D-02
 Quartic linear search produced a step of  0.06287.
 Iteration  1 RMS(Cart)=  0.00256428 RMS(Int)=  0.00000699
 Iteration  2 RMS(Cart)=  0.00001020 RMS(Int)=  0.00000231
 Iteration  3 RMS(Cart)=  0.00000000 RMS(Int)=  0.00000231
 ClnCor:  largest displacement from symmetrization is 1.68D-09 for atom     7.
 Variable       Old X    -DE/DX   Delta X   Delta X   Delta X     New X
                                 (Linear)    (Quad)   (Total)
    R1        2.62630   0.00043  -0.00054   0.00120   0.00066   2.62696
    R2        2.62679  -0.00049  -0.00101  -0.00083  -0.00184   2.62495
    R3        2.04492   0.00044  -0.00215   0.00223   0.00008   2.04500
    R4        2.62667   0.00108  -0.00058   0.00278   0.00219   2.62886
    R5        2.04608   0.00040  -0.00207   0.00208   0.00001   2.04610
    R6        2.62667   0.00108  -0.00058   0.00278   0.00219   2.62886
    R7        2.04595   0.00022  -0.00204   0.00151  -0.00054   2.04541
    R8        2.62630   0.00043  -0.00054   0.00120   0.00066   2.62696
    R9        2.04608   0.00040  -0.00207   0.00208   0.00001   2.04610
   R10        2.62679  -0.00049  -0.00101  -0.00083  -0.00184   2.62495
   R11        2.04492   0.00044  -0.00215   0.00223   0.00008   2.04500
   R12        3.27268   0.00506   0.00366   0.01358   0.01724   3.28992
    A1        2.08486  -0.00122   0.00008  -0.00586  -0.00577   2.07908
    A2        2.10915   0.00072   0.00066   0.00341   0.00407   2.11322
    A3        2.08917   0.00049  -0.00074   0.00245   0.00171   2.09088
    A4        2.10188  -0.00013   0.00014  -0.00027  -0.00013   2.10174
    A5        2.08460  -0.00020  -0.00022  -0.00157  -0.00179   2.08281
    A6        2.09671   0.00033   0.00008   0.00184   0.00192   2.09863
    A7        2.08797   0.00028  -0.00040   0.00212   0.00172   2.08969
    A8        2.09761  -0.00014   0.00020  -0.00106  -0.00086   2.09675
    A9        2.09761  -0.00014   0.00020  -0.00106  -0.00086   2.09675
   A10        2.10188  -0.00013   0.00014  -0.00027  -0.00013   2.10174
   A11        2.09671   0.00033   0.00008   0.00184   0.00192   2.09863
   A12        2.08460  -0.00020  -0.00022  -0.00157  -0.00179   2.08281
   A13        2.08486  -0.00122   0.00008  -0.00586  -0.00577   2.07908
   A14        2.10915   0.00072   0.00066   0.00341   0.00407   2.11322
   A15        2.08917   0.00049  -0.00074   0.00245   0.00171   2.09088
   A16        2.10493   0.00241  -0.00005   0.01014   0.01010   2.11502
   A17        2.08913  -0.00121   0.00003  -0.00507  -0.00505   2.08408
   A18        2.08913  -0.00121   0.00003  -0.00507  -0.00505   2.08408
    D1        0.00000  -0.00000   0.00000  -0.00000   0.00000   0.00000
    D2        3.14159   0.00000   0.00000   0.00000   0.00000   3.14159
    D3        3.14159  -0.00000   0.00000  -0.00000   0.00000   3.14159
    D4        0.00000  -0.00000   0.00000  -0.00000   0.00000   0.00000
    D5        0.00000   0.00000   0.00000   0.00000   0.00000   0.00000
    D6        3.14159   0.00000   0.00000   0.00000   0.00000   3.14159
    D7        3.14159   0.00000   0.00000   0.00000   0.00000   3.14159
    D8        0.00000   0.00000   0.00000   0.00000   0.00000   0.00000
    D9        0.00000  -0.00000   0.00000  -0.00000   0.00000   0.00000
   D10        3.14159  -0.00000   0.00000  -0.00000   0.00000   3.14159
   D11        3.14159  -0.00000   0.00000  -0.00000   0.00000   3.14159
   D12        0.00000  -0.00000   0.00000  -0.00000   0.00000   0.00000
   D13        0.00000   0.00000   0.00000   0.00000   0.00000   0.00000
   D14        3.14159  -0.00000   0.00000   0.00000   0.00000   3.14159
   D15        3.14159   0.00000   0.00000   0.00000   0.00000   3.14159
   D16        0.00000  -0.00000   0.00000   0.00000   0.00000   0.00000
   D17        0.00000  -0.00000   0.00000  -0.00000   0.00000   0.00000
   D18        3.14159  -0.00000   0.00000  -0.00000   0.00000   3.14159
   D19        3.14159   0.00000   0.00000   0.00000   0.00000   3.14159
   D20        0.00000  -0.00000   0.00000  -0.00000   0.00000   0.00000
   D21        0.00000   0.00000   0.00000  -0.00000   0.00000   0.00000
   D22        3.14159  -0.00000   0.00000  -0.00000   0.00000   3.14159
   D23        3.14159   0.00000   0.00000   0.00000   0.00000   3.14159
   D24        0.00000   0.00000   0.00000   0.00000   0.00000   0.00000
         Item               Value     Threshold  Converged?
 Maximum Force            0.005060     0.000450     NO 
 RMS     Force            0.000894     0.000300     NO 
 Maximum Displacement     0.011043     0.001800     NO 
 RMS     Displacement     0.002562     0.001200     NO 
 Predicted change in Energy=-7.776794D-05
 GradGradGradGradGradGradGradGradGradGradGradGradGradGradGradGradGradGrad

                          Input orientation:                          
 ---------------------------------------------------------------------
 Center     Atomic      Atomic             Coordinates (Angstroms)
 Number     Number       Type             X           Y           Z
 ---------------------------------------------------------------------
      1          6           0       -3.151527    0.226141    0.000000
      2          6           0       -1.963560    0.948077    0.000000
      3          6           0       -0.738602    0.288737    0.000000
      4          6           0       -0.703673   -1.101957    0.000000
      5          6           0       -1.884367   -1.835728    0.000000
      6          6           0       -3.099062   -1.161929    0.000000
      7         17           0       -4.582299   -2.073479    0.000000
      8          1           0       -4.110249    0.728077    0.000000
      9          1           0       -2.000419    2.030196    0.000000
     10          1           0        0.183556    0.855466    0.000000
     11          1           0        0.245112   -1.623636    0.000000
     12          1           0       -1.869610   -2.917795    0.000000
 ---------------------------------------------------------------------
                    Distance matrix (angstroms):
                    1          2          3          4          5
     1  C    0.000000
     2  C    1.390128   0.000000
     3  C    2.413737   1.391133   0.000000
     4  C    2.784930   2.406233   1.391133   0.000000
     5  C    2.420124   2.784930   2.413737   1.390128   0.000000
     6  C    1.389061   2.396140   2.770596   2.396140   1.389061
     7  Cl   2.708388   3.998449   4.511549   3.998449   2.708388
     8  H    1.082168   2.157933   3.400151   3.867013   3.395239
     9  H    2.140015   1.082747   2.150550   3.389976   3.867665
    10  H    3.393940   2.149112   1.082385   2.149112   3.393940
    11  H    3.867665   3.389976   2.150550   1.082747   2.140015
    12  H    3.395239   3.867013   3.400151   2.157933   1.082168
                    6          7          8          9         10
     6  C    0.000000
     7  Cl   1.740953   0.000000
     8  H    2.143506   2.841047   0.000000
     9  H    3.375897   4.848325   2.479294   0.000000
    10  H    3.852981   5.593934   4.295694   2.479866   0.000000
    11  H    3.375897   4.848325   4.949720   4.288695   2.479867
    12  H    2.143506   2.841047   4.279351   4.949720   4.295694
                   11         12
    11  H    0.000000
    12  H    2.479294   0.000000
 Stoichiometry    C6H5Cl
 Framework group  CS[SG(C6H5Cl)]
 Deg. of freedom    21
 Full point group                 CS      NOp   2
 Largest Abelian subgroup         CS      NOp   2
 Largest concise Abelian subgroup C1      NOp   1
                         Standard orientation:                         
 ---------------------------------------------------------------------
 Center     Atomic      Atomic             Coordinates (Angstroms)
 Number     Number       Type             X           Y           Z
 ---------------------------------------------------------------------
      1          6           0       -0.175142    1.210062    0.000000
      2          6           0       -1.565253    1.203116    0.000000
      3          6           0       -2.263653   -0.000000    0.000000
      4          6           0       -1.565253   -1.203116    0.000000
      5          6           0       -0.175142   -1.210062    0.000000
      6          6           0        0.506943   -0.000000    0.000000
      7         17           0        2.247896    0.000000    0.000000
      8          1           0        0.378848    2.139675    0.000000
      9          1           0       -2.100441    2.144347    0.000000
     10          1           0       -3.346038   -0.000000    0.000000
     11          1           0       -2.100441   -2.144347    0.000000
     12          1           0        0.378848   -2.139676    0.000000
 ---------------------------------------------------------------------
 Rotational constants (GHZ):           5.7183667           1.5765253           1.2358168
 Standard basis: 6-311++G(d,p) (5D, 7F)
 There are   155 symmetry adapted cartesian basis functions of A'  symmetry.
 There are    49 symmetry adapted cartesian basis functions of A"  symmetry.
 There are   148 symmetry adapted basis functions of A'  symmetry.
 There are    49 symmetry adapted basis functions of A"  symmetry.
   197 basis functions,   314 primitive gaussians,   204 cartesian basis functions
    29 alpha electrons       29 beta electrons
       nuclear repulsion energy       316.2121796682 Hartrees.
 NAtoms=   12 NActive=   12 NUniq=   12 SFac= 1.00D+00 NAtFMM=   60 NAOKFM=F Big=F
 Integral buffers will be    131072 words long.
 Raffenetti 2 integral format.
 Two-electron integral symmetry is turned on.
 One-electron integrals computed using PRISM.
 NBasis=   197 RedAO= T EigKep=  1.09D-06  NBF=   148    49
 NBsUse=   197 1.00D-06 EigRej= -1.00D+00 NBFU=   148    49
 Initial guess from the checkpoint file:  "frequency_chks/1ClBz_Freq.chk"
 B after Tr=     0.000000    0.000000    0.000000
         Rot=    1.000000    0.000000    0.000000    0.000000 Ang=   0.00 deg.
 Initial guess orbital symmetries:
       Occupied  (A') (A') (A') (A') (A') (A') (A') (A') (A') (A")
                 (A') (A') (A') (A') (A') (A') (A') (A') (A') (A')
                 (A') (A') (A") (A') (A') (A") (A') (A") (A")
       Virtual   (A') (A") (A") (A') (A') (A') (A') (A') (A") (A')
                 (A") (A') (A") (A') (A') (A") (A') (A') (A') (A")
                 (A') (A") (A') (A') (A') (A') (A") (A') (A') (A')
                 (A") (A') (A') (A') (A') (A') (A') (A') (A') (A')
                 (A') (A') (A') (A') (A') (A') (A') (A") (A') (A')
                 (A') (A") (A') (A') (A') (A') (A") (A") (A') (A')
                 (A") (A") (A") (A') (A') (A') (A') (A') (A') (A')
                 (A') (A") (A') (A') (A') (A') (A') (A") (A') (A')
                 (A') (A") (A') (A") (A') (A") (A") (A") (A') (A')
                 (A') (A") (A') (A') (A') (A') (A") (A") (A') (A")
                 (A') (A') (A') (A') (A") (A") (A') (A') (A") (A")
                 (A') (A') (A') (A") (A') (A') (A') (A") (A") (A')
                 (A") (A") (A') (A') (A') (A') (A') (A') (A') (A')
                 (A") (A') (A') (A') (A') (A') (A") (A") (A') (A')
                 (A") (A") (A') (A") (A') (A') (A') (A') (A') (A')
                 (A') (A') (A') (A') (A') (A') (A') (A') (A') (A')
                 (A') (A') (A') (A') (A") (A') (A') (A')
 Keep R1 ints in memory in symmetry-blocked form, NReq=291585601.
 Requested convergence on RMS density matrix=1.00D-08 within 128 cycles.
 Requested convergence on MAX density matrix=1.00D-06.
 Requested convergence on             energy=1.00D-06.
 No special actions if energy rises.
 SCF Done:  E(RM062X) =  -691.799710828     A.U. after   11 cycles
            NFock= 11  Conv=0.82D-08     -V/T= 2.0028
 Calling FoFJK, ICntrl=      2127 FMM=F ISym2X=1 I1Cent= 0 IOpClX= 0 NMat=1 NMatS=1 NMatT=0.
 ***** Axes restored to original set *****
 -------------------------------------------------------------------
 Center     Atomic                   Forces (Hartrees/Bohr)
 Number     Number              X              Y              Z
 -------------------------------------------------------------------
      1        6          -0.000921555   -0.000394485   -0.000000000
      2        6           0.000530418   -0.000360847   -0.000000000
      3        6          -0.000488003   -0.000299887   -0.000000000
      4        6          -0.000082356    0.000636173   -0.000000000
      5        6          -0.000768173   -0.000644012    0.000000000
      6        6           0.002474739    0.001520919   -0.000000000
      7       17          -0.001291125   -0.000793487    0.000000000
      8        1          -0.000229680    0.000095728   -0.000000000
      9        1           0.000061682    0.000401839   -0.000000000
     10        1           0.000346041    0.000212663   -0.000000000
     11        1           0.000386360   -0.000126469   -0.000000000
     12        1          -0.000018347   -0.000248135    0.000000000
 -------------------------------------------------------------------
 Cartesian Forces:  Max     0.002474739 RMS     0.000634962

 GradGradGradGradGradGradGradGradGradGradGradGradGradGradGradGradGradGrad
 Berny optimization.
 Using GEDIIS/GDIIS optimizer.
 FormGI is forming the generalized inverse of G from B-inverse, IUseBI=4.
 Internal  Forces:  Max     0.001515462 RMS     0.000300220
 Search for a local minimum.
 Step number   3 out of a maximum of   64
 All quantities printed in internal units (Hartrees-Bohrs-Radians)
 Mixed Optimization -- En-DIIS/RFO-DIIS
 Swapping is turned off.
 Update second derivatives using D2CorX and points    1    2    3
 DE= -1.00D-04 DEPred=-7.78D-05 R= 1.29D+00
 TightC=F SS=  1.41D+00  RLast= 2.43D-02 DXNew= 5.1400D-01 7.2964D-02
 Trust test= 1.29D+00 RLast= 2.43D-02 DXMaxT set to 3.06D-01
 ITU=  1  1  0
     Eigenvalues ---    0.02108   0.02118   0.02133   0.02139   0.02151
     Eigenvalues ---    0.02157   0.02159   0.02160   0.02161   0.15585
     Eigenvalues ---    0.16000   0.16000   0.16000   0.16204   0.17490
     Eigenvalues ---    0.22000   0.22034   0.25000   0.29353   0.33656
     Eigenvalues ---    0.33666   0.33680   0.33768   0.36849   0.41970
     Eigenvalues ---    0.42100   0.45986   0.46501   0.47097   0.47782
 En-DIIS/RFO-DIIS/Sim-DIIS IScMMF=       -3 using points:     3    2
 RFO step:  Lambda=-2.44917948D-05.
 DidBck=F Rises=F RFO-DIIS coefs:    1.44136   -0.44136
 Iteration  1 RMS(Cart)=  0.00125886 RMS(Int)=  0.00000209
 Iteration  2 RMS(Cart)=  0.00000225 RMS(Int)=  0.00000153
 Iteration  3 RMS(Cart)=  0.00000000 RMS(Int)=  0.00000153
 ClnCor:  largest displacement from symmetrization is 5.96D-10 for atom     7.
 Variable       Old X    -DE/DX   Delta X   Delta X   Delta X     New X
                                 (Linear)    (Quad)   (Total)
    R1        2.62696   0.00044   0.00029   0.00093   0.00122   2.62818
    R2        2.62495  -0.00025  -0.00081  -0.00030  -0.00111   2.62384
    R3        2.04500   0.00025   0.00003   0.00041   0.00044   2.04544
    R4        2.62886  -0.00007   0.00097  -0.00126  -0.00030   2.62856
    R5        2.04610   0.00040   0.00001   0.00109   0.00109   2.04719
    R6        2.62886  -0.00007   0.00097  -0.00126  -0.00030   2.62856
    R7        2.04541   0.00041  -0.00024   0.00134   0.00110   2.04651
    R8        2.62696   0.00044   0.00029   0.00093   0.00122   2.62818
    R9        2.04610   0.00040   0.00001   0.00109   0.00109   2.04719
   R10        2.62495  -0.00025  -0.00081  -0.00030  -0.00111   2.62384
   R11        2.04500   0.00025   0.00003   0.00041   0.00044   2.04544
   R12        3.28992   0.00152   0.00761   0.00019   0.00780   3.29772
    A1        2.07908  -0.00044  -0.00255  -0.00042  -0.00297   2.07612
    A2        2.11322   0.00024   0.00179   0.00013   0.00192   2.11514
    A3        2.09088   0.00020   0.00075   0.00029   0.00104   2.09192
    A4        2.10174   0.00001  -0.00006   0.00020   0.00014   2.10188
    A5        2.08281   0.00007  -0.00079   0.00127   0.00048   2.08329
    A6        2.09863  -0.00008   0.00085  -0.00146  -0.00062   2.09801
    A7        2.08969   0.00015   0.00076   0.00022   0.00098   2.09067
    A8        2.09675  -0.00008  -0.00038  -0.00011  -0.00049   2.09626
    A9        2.09675  -0.00008  -0.00038  -0.00011  -0.00049   2.09626
   A10        2.10174   0.00001  -0.00006   0.00020   0.00014   2.10188
   A11        2.09863  -0.00008   0.00085  -0.00146  -0.00062   2.09801
   A12        2.08281   0.00007  -0.00079   0.00127   0.00048   2.08329
   A13        2.07908  -0.00044  -0.00255  -0.00042  -0.00297   2.07612
   A14        2.11322   0.00024   0.00179   0.00013   0.00192   2.11514
   A15        2.09088   0.00020   0.00075   0.00029   0.00104   2.09192
   A16        2.11502   0.00072   0.00446   0.00022   0.00468   2.11970
   A17        2.08408  -0.00036  -0.00223  -0.00011  -0.00234   2.08174
   A18        2.08408  -0.00036  -0.00223  -0.00011  -0.00234   2.08174
    D1        0.00000   0.00000   0.00000   0.00000   0.00000   0.00000
    D2        3.14159   0.00000   0.00000   0.00000   0.00000   3.14159
    D3        3.14159   0.00000   0.00000   0.00000   0.00000   3.14159
    D4        0.00000   0.00000   0.00000   0.00000   0.00000   0.00000
    D5        0.00000  -0.00000   0.00000  -0.00000   0.00000   0.00000
    D6        3.14159  -0.00000   0.00000  -0.00000   0.00000   3.14159
    D7        3.14159  -0.00000   0.00000  -0.00000   0.00000   3.14159
    D8        0.00000  -0.00000   0.00000  -0.00000   0.00000   0.00000
    D9        0.00000  -0.00000   0.00000  -0.00000   0.00000   0.00000
   D10        3.14159  -0.00000   0.00000  -0.00000   0.00000   3.14159
   D11        3.14159  -0.00000   0.00000   0.00000   0.00000   3.14159
   D12        0.00000  -0.00000   0.00000   0.00000   0.00000   0.00000
   D13        0.00000  -0.00000   0.00000  -0.00000   0.00000   0.00000
   D14        3.14159  -0.00000   0.00000   0.00000   0.00000   3.14159
   D15        3.14159  -0.00000   0.00000  -0.00000   0.00000   3.14159
   D16        0.00000  -0.00000   0.00000   0.00000   0.00000   0.00000
   D17        0.00000   0.00000   0.00000   0.00000   0.00000   0.00000
   D18        3.14159   0.00000   0.00000   0.00000   0.00000   3.14159
   D19        3.14159   0.00000   0.00000   0.00000   0.00000   3.14159
   D20        0.00000   0.00000   0.00000   0.00000   0.00000   0.00000
   D21        0.00000  -0.00000   0.00000  -0.00000   0.00000   0.00000
   D22        3.14159  -0.00000   0.00000  -0.00000   0.00000   3.14159
   D23        3.14159  -0.00000   0.00000  -0.00000   0.00000   3.14159
   D24        0.00000  -0.00000   0.00000  -0.00000   0.00000   0.00000
         Item               Value     Threshold  Converged?
 Maximum Force            0.001515     0.000450     NO 
 RMS     Force            0.000300     0.000300     NO 
 Maximum Displacement     0.004321     0.001800     NO 
 RMS     Displacement     0.001258     0.001200     NO 
 Predicted change in Energy=-1.224694D-05
 GradGradGradGradGradGradGradGradGradGradGradGradGradGradGradGradGradGrad

                          Input orientation:                          
 ---------------------------------------------------------------------
 Center     Atomic      Atomic             Coordinates (Angstroms)
 Number     Number       Type             X           Y           Z
 ---------------------------------------------------------------------
      1          6           0       -3.152463    0.226835    0.000000
      2          6           0       -1.963491    0.948361    0.000000
      3          6           0       -0.738993    0.288496    0.000000
      4          6           0       -0.703388   -1.102024    0.000000
      5          6           0       -1.884171   -1.836876    0.000000
      6          6           0       -3.096776   -1.160523    0.000000
      7         17           0       -4.583529   -2.074236    0.000000
      8          1           0       -4.112042    0.727635    0.000000
      9          1           0       -1.999174    2.031099    0.000000
     10          1           0        0.183661    0.855531    0.000000
     11          1           0        0.246480   -1.622933    0.000000
     12          1           0       -1.870814   -2.919195    0.000000
 ---------------------------------------------------------------------
                    Distance matrix (angstroms):
                    1          2          3          4          5
     1  C    0.000000
     2  C    1.390774   0.000000
     3  C    2.414257   1.390977   0.000000
     4  C    2.786365   2.406644   1.390977   0.000000
     5  C    2.422285   2.786365   2.414257   1.390774   0.000000
     6  C    1.388475   2.394102   2.767453   2.394102   1.388475
     7  Cl   2.709774   4.000086   4.512534   4.000086   2.709774
     8  H    1.082401   2.159859   3.401514   3.868665   3.397076
     9  H    2.141365   1.083326   2.150516   3.390505   3.869684
    10  H    3.394846   2.149158   1.082967   2.149158   3.394846
    11  H    3.869684   3.390505   2.150516   1.083326   2.141365
    12  H    3.397076   3.868665   3.401514   2.159859   1.082401
                    6          7          8          9         10
     6  C    0.000000
     7  Cl   1.745081   0.000000
     8  H    2.143807   2.841264   0.000000
     9  H    3.375082   4.851047   2.482584   0.000000
    10  H    3.850420   5.595501   4.297606   2.479260   0.000000
    11  H    3.375082   4.851047   4.951957   4.288929   2.479260
    12  H    2.143807   2.841264   4.280475   4.951957   4.297606
                   11         12
    11  H    0.000000
    12  H    2.482584   0.000000
 Stoichiometry    C6H5Cl
 Framework group  CS[SG(C6H5Cl)]
 Deg. of freedom    21
 Full point group                 CS      NOp   2
 Largest Abelian subgroup         CS      NOp   2
 Largest concise Abelian subgroup C1      NOp   1
                         Standard orientation:                         
 ---------------------------------------------------------------------
 Center     Atomic      Atomic             Coordinates (Angstroms)
 Number     Number       Type             X           Y           Z
 ---------------------------------------------------------------------
      1          6           0       -1.211143   -0.174954    0.000000
      2          6           0       -1.203322   -1.565706   -0.000000
      3          6           0        0.000000   -2.263439   -0.000000
      4          6           0        1.203322   -1.565706   -0.000000
      5          6           0        1.211143   -0.174954   -0.000000
      6          6           0       -0.000000    0.504014    0.000000
      7         17           0       -0.000000    2.249094    0.000000
      8          1           0       -2.140238    0.380361    0.000000
      9          1           0       -2.144465   -2.102220    0.000000
     10          1           0        0.000000   -3.346407   -0.000000
     11          1           0        2.144465   -2.102220   -0.000000
     12          1           0        2.140238    0.380361   -0.000000
 ---------------------------------------------------------------------
 Rotational constants (GHZ):           5.7131595           1.5755752           1.2349897
 Standard basis: 6-311++G(d,p) (5D, 7F)
 There are   155 symmetry adapted cartesian basis functions of A'  symmetry.
 There are    49 symmetry adapted cartesian basis functions of A"  symmetry.
 There are   148 symmetry adapted basis functions of A'  symmetry.
 There are    49 symmetry adapted basis functions of A"  symmetry.
   197 basis functions,   314 primitive gaussians,   204 cartesian basis functions
    29 alpha electrons       29 beta electrons
       nuclear repulsion energy       316.0914937519 Hartrees.
 NAtoms=   12 NActive=   12 NUniq=   12 SFac= 1.00D+00 NAtFMM=   60 NAOKFM=F Big=F
 Integral buffers will be    131072 words long.
 Raffenetti 2 integral format.
 Two-electron integral symmetry is turned on.
 One-electron integrals computed using PRISM.
 NBasis=   197 RedAO= T EigKep=  1.10D-06  NBF=   148    49
 NBsUse=   197 1.00D-06 EigRej= -1.00D+00 NBFU=   148    49
 Initial guess from the checkpoint file:  "frequency_chks/1ClBz_Freq.chk"
 B after Tr=    -0.000000    0.000000   -0.000000
         Rot=    0.707107   -0.000000    0.000000   -0.707107 Ang= -90.00 deg.
 Initial guess orbital symmetries:
       Occupied  (A') (A') (A') (A') (A') (A') (A') (A') (A') (A")
                 (A') (A') (A') (A') (A') (A') (A') (A') (A') (A')
                 (A') (A') (A") (A') (A') (A") (A') (A") (A")
       Virtual   (A') (A") (A") (A') (A') (A') (A') (A') (A") (A')
                 (A") (A') (A") (A') (A') (A") (A') (A') (A') (A")
                 (A') (A") (A') (A') (A') (A') (A") (A') (A') (A')
                 (A") (A') (A') (A') (A') (A') (A') (A') (A') (A')
                 (A') (A') (A') (A') (A') (A') (A') (A") (A') (A')
                 (A') (A") (A') (A') (A') (A') (A") (A") (A') (A')
                 (A") (A") (A") (A') (A') (A') (A') (A') (A') (A')
                 (A') (A") (A') (A') (A') (A') (A') (A") (A') (A')
                 (A') (A") (A') (A") (A') (A") (A") (A") (A') (A')
                 (A') (A") (A') (A') (A') (A') (A") (A") (A') (A")
                 (A') (A') (A') (A') (A") (A") (A') (A') (A") (A")
                 (A') (A') (A') (A") (A') (A') (A') (A") (A") (A')
                 (A") (A") (A') (A') (A') (A') (A') (A') (A') (A')
                 (A") (A') (A') (A') (A') (A') (A") (A") (A') (A')
                 (A") (A") (A') (A") (A') (A') (A') (A') (A') (A')
                 (A') (A') (A') (A') (A') (A') (A') (A') (A') (A')
                 (A') (A') (A') (A') (A") (A') (A') (A')
 Keep R1 ints in memory in symmetry-blocked form, NReq=291585601.
 Requested convergence on RMS density matrix=1.00D-08 within 128 cycles.
 Requested convergence on MAX density matrix=1.00D-06.
 Requested convergence on             energy=1.00D-06.
 No special actions if energy rises.
 SCF Done:  E(RM062X) =  -691.799723391     A.U. after   10 cycles
            NFock= 10  Conv=0.97D-08     -V/T= 2.0028
 Calling FoFJK, ICntrl=      2127 FMM=F ISym2X=1 I1Cent= 0 IOpClX= 0 NMat=1 NMatS=1 NMatT=0.
 ***** Axes restored to original set *****
 -------------------------------------------------------------------
 Center     Atomic                   Forces (Hartrees/Bohr)
 Number     Number              X              Y              Z
 -------------------------------------------------------------------
      1        6          -0.000045160    0.000001328   -0.000000000
      2        6          -0.000052619    0.000047840   -0.000000000
      3        6          -0.000045521   -0.000027971   -0.000000000
      4        6           0.000018907   -0.000068564   -0.000000000
      5        6          -0.000019210   -0.000040885   -0.000000000
      6        6           0.000060983    0.000037475    0.000000000
      7       17          -0.000000696   -0.000000428   -0.000000000
      8        1           0.000006984    0.000021134    0.000000000
      9        1           0.000026958    0.000009207    0.000000000
     10        1           0.000006974    0.000004286    0.000000000
     11        1           0.000020392    0.000019893    0.000000000
     12        1           0.000022009   -0.000003316    0.000000000
 -------------------------------------------------------------------
 Cartesian Forces:  Max     0.000068564 RMS     0.000026277

 GradGradGradGradGradGradGradGradGradGradGradGradGradGradGradGradGradGrad
 Berny optimization.
 Using GEDIIS/GDIIS optimizer.
 FormGI is forming the generalized inverse of G from B-inverse, IUseBI=4.
 Internal  Forces:  Max     0.000061451 RMS     0.000021718
 Search for a local minimum.
 Step number   4 out of a maximum of   64
 All quantities printed in internal units (Hartrees-Bohrs-Radians)
 Mixed Optimization -- En-DIIS/RFO-DIIS
 Swapping is turned off.
 Update second derivatives using D2CorX and points    1    2    3    4
 DE= -1.26D-05 DEPred=-1.22D-05 R= 1.03D+00
 TightC=F SS=  1.41D+00  RLast= 1.15D-02 DXNew= 5.1400D-01 3.4612D-02
 Trust test= 1.03D+00 RLast= 1.15D-02 DXMaxT set to 3.06D-01
 ITU=  1  1  1  0
     Eigenvalues ---    0.02108   0.02118   0.02134   0.02139   0.02151
     Eigenvalues ---    0.02157   0.02159   0.02160   0.02161   0.15423
     Eigenvalues ---    0.16000   0.16000   0.16000   0.16049   0.16995
     Eigenvalues ---    0.22000   0.22053   0.25000   0.29584   0.33656
     Eigenvalues ---    0.33666   0.33677   0.33728   0.34907   0.41995
     Eigenvalues ---    0.42110   0.45985   0.46501   0.46661   0.48508
 En-DIIS/RFO-DIIS/Sim-DIIS IScMMF=       -3 using points:     4    3    2
 RFO step:  Lambda=-1.20104158D-07.
 DidBck=F Rises=F RFO-DIIS coefs:    1.05299   -0.06085    0.00786
 Iteration  1 RMS(Cart)=  0.00014572 RMS(Int)=  0.00000002
 Iteration  2 RMS(Cart)=  0.00000002 RMS(Int)=  0.00000001
 ClnCor:  largest displacement from symmetrization is 9.95D-15 for atom     9.
 Variable       Old X    -DE/DX   Delta X   Delta X   Delta X     New X
                                 (Linear)    (Quad)   (Total)
    R1        2.62818  -0.00001   0.00006  -0.00008  -0.00002   2.62816
    R2        2.62384   0.00003  -0.00004   0.00010   0.00006   2.62389
    R3        2.04544   0.00000   0.00002  -0.00003  -0.00000   2.04544
    R4        2.62856   0.00003  -0.00003   0.00008   0.00005   2.62861
    R5        2.04719   0.00001   0.00006  -0.00004   0.00002   2.04721
    R6        2.62856   0.00003  -0.00003   0.00008   0.00005   2.62861
    R7        2.04651   0.00001   0.00006  -0.00004   0.00002   2.04653
    R8        2.62818  -0.00001   0.00006  -0.00008  -0.00002   2.62816
    R9        2.04719   0.00001   0.00006  -0.00004   0.00002   2.04721
   R10        2.62384   0.00003  -0.00004   0.00010   0.00006   2.62389
   R11        2.04544   0.00000   0.00002  -0.00003  -0.00000   2.04544
   R12        3.29772   0.00000   0.00028  -0.00016   0.00012   3.29785
    A1        2.07612  -0.00003  -0.00011  -0.00005  -0.00016   2.07596
    A2        2.11514  -0.00001   0.00007  -0.00012  -0.00005   2.11509
    A3        2.09192   0.00004   0.00004   0.00018   0.00022   2.09214
    A4        2.10188  -0.00003   0.00001  -0.00015  -0.00014   2.10174
    A5        2.08329   0.00004   0.00004   0.00022   0.00026   2.08355
    A6        2.09801  -0.00001  -0.00005  -0.00007  -0.00012   2.09789
    A7        2.09067   0.00006   0.00004   0.00025   0.00029   2.09096
    A8        2.09626  -0.00003  -0.00002  -0.00013  -0.00015   2.09611
    A9        2.09626  -0.00003  -0.00002  -0.00013  -0.00015   2.09611
   A10        2.10188  -0.00003   0.00001  -0.00015  -0.00014   2.10174
   A11        2.09801  -0.00001  -0.00005  -0.00007  -0.00012   2.09789
   A12        2.08329   0.00004   0.00004   0.00022   0.00026   2.08355
   A13        2.07612  -0.00003  -0.00011  -0.00005  -0.00016   2.07596
   A14        2.11514  -0.00001   0.00007  -0.00012  -0.00005   2.11509
   A15        2.09192   0.00004   0.00004   0.00018   0.00022   2.09214
   A16        2.11970   0.00006   0.00017   0.00014   0.00031   2.12001
   A17        2.08174  -0.00003  -0.00008  -0.00007  -0.00016   2.08159
   A18        2.08174  -0.00003  -0.00008  -0.00007  -0.00016   2.08159
    D1       -0.00000  -0.00000   0.00000  -0.00000   0.00000   0.00000
    D2        3.14159  -0.00000   0.00000  -0.00000   0.00000   3.14159
    D3        3.14159   0.00000   0.00000  -0.00000   0.00000   3.14159
    D4        0.00000  -0.00000   0.00000  -0.00000  -0.00000   0.00000
    D5        0.00000   0.00000   0.00000   0.00000   0.00000   0.00000
    D6        3.14159   0.00000   0.00000   0.00000   0.00000   3.14159
    D7        3.14159   0.00000   0.00000   0.00000   0.00000   3.14159
    D8       -0.00000   0.00000   0.00000   0.00000   0.00000   0.00000
    D9        0.00000  -0.00000   0.00000  -0.00000   0.00000   0.00000
   D10        3.14159   0.00000   0.00000  -0.00000   0.00000   3.14159
   D11        3.14159   0.00000   0.00000  -0.00000   0.00000   3.14159
   D12        0.00000   0.00000   0.00000  -0.00000  -0.00000   0.00000
   D13       -0.00000  -0.00000   0.00000   0.00000   0.00000   0.00000
   D14        3.14159  -0.00000   0.00000   0.00000   0.00000   3.14159
   D15        3.14159   0.00000   0.00000   0.00000   0.00000   3.14159
   D16        0.00000   0.00000   0.00000   0.00000   0.00000   0.00000
   D17        0.00000  -0.00000   0.00000  -0.00000   0.00000   0.00000
   D18        3.14159  -0.00000   0.00000  -0.00000   0.00000   3.14159
   D19        3.14159   0.00000   0.00000  -0.00000   0.00000   3.14159
   D20       -0.00000   0.00000   0.00000  -0.00000   0.00000   0.00000
   D21        0.00000   0.00000   0.00000  -0.00000  -0.00000   0.00000
   D22        3.14159  -0.00000   0.00000  -0.00000   0.00000   3.14159
   D23        3.14159  -0.00000   0.00000  -0.00000   0.00000   3.14159
   D24        0.00000  -0.00000   0.00000   0.00000  -0.00000   0.00000
         Item               Value     Threshold  Converged?
 Maximum Force            0.000061     0.000450     YES
 RMS     Force            0.000022     0.000300     YES
 Maximum Displacement     0.000352     0.001800     YES
 RMS     Displacement     0.000146     0.001200     YES
 Predicted change in Energy=-6.003794D-08
 Optimization completed.
    -- Stationary point found.
                           ----------------------------
                           !   Optimized Parameters   !
                           ! (Angstroms and Degrees)  !
 --------------------------                            --------------------------
 ! Name  Definition              Value          Derivative Info.                !
 --------------------------------------------------------------------------------
 ! R1    R(1,2)                  1.3908         -DE/DX =    0.0                 !
 ! R2    R(1,6)                  1.3885         -DE/DX =    0.0                 !
 ! R3    R(1,8)                  1.0824         -DE/DX =    0.0                 !
 ! R4    R(2,3)                  1.391          -DE/DX =    0.0                 !
 ! R5    R(2,9)                  1.0833         -DE/DX =    0.0                 !
 ! R6    R(3,4)                  1.391          -DE/DX =    0.0                 !
 ! R7    R(3,10)                 1.083          -DE/DX =    0.0                 !
 ! R8    R(4,5)                  1.3908         -DE/DX =    0.0                 !
 ! R9    R(4,11)                 1.0833         -DE/DX =    0.0                 !
 ! R10   R(5,6)                  1.3885         -DE/DX =    0.0                 !
 ! R11   R(5,12)                 1.0824         -DE/DX =    0.0                 !
 ! R12   R(6,7)                  1.7451         -DE/DX =    0.0                 !
 ! A1    A(2,1,6)              118.9529         -DE/DX =    0.0                 !
 ! A2    A(2,1,8)              121.1887         -DE/DX =    0.0                 !
 ! A3    A(6,1,8)              119.8584         -DE/DX =    0.0                 !
 ! A4    A(1,2,3)              120.429          -DE/DX =    0.0                 !
 ! A5    A(1,2,9)              119.3638         -DE/DX =    0.0                 !
 ! A6    A(3,2,9)              120.2072         -DE/DX =    0.0                 !
 ! A7    A(2,3,4)              119.7863         -DE/DX =    0.0001              !
 ! A8    A(2,3,10)             120.1068         -DE/DX =    0.0                 !
 ! A9    A(4,3,10)             120.1068         -DE/DX =    0.0                 !
 ! A10   A(3,4,5)              120.429          -DE/DX =    0.0                 !
 ! A11   A(3,4,11)             120.2072         -DE/DX =    0.0                 !
 ! A12   A(5,4,11)             119.3638         -DE/DX =    0.0                 !
 ! A13   A(4,5,6)              118.9529         -DE/DX =    0.0                 !
 ! A14   A(4,5,12)             121.1887         -DE/DX =    0.0                 !
[...]
    R6        2.62856   0.00003   0.00000   0.00005   0.00005   2.62861
    R7        2.04651   0.00001   0.00000   0.00004   0.00004   2.04655
    R8        2.62818  -0.00001   0.00000  -0.00001  -0.00001   2.62817
    R9        2.04719   0.00001   0.00000   0.00001   0.00001   2.04720
   R10        2.62384   0.00003   0.00000   0.00004   0.00004   2.62388
   R11        2.04544   0.00000   0.00000  -0.00000  -0.00000   2.04544
   R12        3.29772   0.00000   0.00000   0.00009   0.00009   3.29782
    A1        2.07612  -0.00003   0.00000  -0.00016  -0.00016   2.07596
    A2        2.11514  -0.00001   0.00000  -0.00005  -0.00005   2.11510
    A3        2.09192   0.00004   0.00000   0.00020   0.00020   2.09213
    A4        2.10188  -0.00003   0.00000  -0.00016  -0.00016   2.10173
    A5        2.08329   0.00004   0.00000   0.00036   0.00036   2.08365
    A6        2.09801  -0.00001   0.00000  -0.00020  -0.00020   2.09781
    A7        2.09067   0.00006   0.00000   0.00031   0.00031   2.09097
    A8        2.09626  -0.00003   0.00000  -0.00015  -0.00015   2.09611
    A9        2.09626  -0.00003   0.00000  -0.00015  -0.00015   2.09611
   A10        2.10188  -0.00003   0.00000  -0.00016  -0.00016   2.10173
   A11        2.09801  -0.00001   0.00000  -0.00020  -0.00020   2.09781
   A12        2.08329   0.00004   0.00000   0.00036   0.00036   2.08365
   A13        2.07612  -0.00003   0.00000  -0.00016  -0.00016   2.07596
   A14        2.11514  -0.00001   0.00000  -0.00005  -0.00005   2.11510
   A15        2.09192   0.00004   0.00000   0.00020   0.00020   2.09213
   A16        2.11970   0.00006   0.00000   0.00032   0.00032   2.12002
   A17        2.08174  -0.00003   0.00000  -0.00016  -0.00016   2.08158
   A18        2.08174  -0.00003   0.00000  -0.00016  -0.00016   2.08158
    D1       -0.00000   0.00000   0.00000   0.00000   0.00000   0.00000
    D2        3.14159   0.00000   0.00000   0.00000   0.00000   3.14159
    D3        3.14159   0.00000   0.00000   0.00000   0.00000   3.14159
    D4        0.00000  -0.00000   0.00000   0.00000   0.00000   0.00000
    D5        0.00000  -0.00000   0.00000  -0.00000   0.00000   0.00000
    D6        3.14159  -0.00000   0.00000   0.00000   0.00000   3.14159
    D7        3.14159  -0.00000   0.00000  -0.00000   0.00000   3.14159
    D8       -0.00000   0.00000   0.00000  -0.00000   0.00000   0.00000
    D9       -0.00000  -0.00000   0.00000   0.00000   0.00000   0.00000
   D10        3.14159   0.00000   0.00000  -0.00000   0.00000   3.14159
   D11        3.14159  -0.00000   0.00000  -0.00000   0.00000   3.14159
   D12        0.00000   0.00000   0.00000  -0.00000   0.00000   0.00000
   D13        0.00000   0.00000   0.00000  -0.00000   0.00000   0.00000
   D14        3.14159  -0.00000   0.00000   0.00000   0.00000   3.14159
   D15        3.14159   0.00000   0.00000   0.00000   0.00000   3.14159
   D16       -0.00000  -0.00000   0.00000   0.00000   0.00000   0.00000
   D17        0.00000   0.00000   0.00000  -0.00000   0.00000   0.00000
   D18        3.14159  -0.00000   0.00000  -0.00000   0.00000   3.14159
   D19        3.14159   0.00000   0.00000  -0.00000   0.00000   3.14159
   D20       -0.00000  -0.00000   0.00000  -0.00000   0.00000   0.00000
   D21       -0.00000  -0.00000   0.00000   0.00000   0.00000   0.00000
   D22        3.14159  -0.00000   0.00000  -0.00000   0.00000   3.14159
   D23        3.14159  -0.00000   0.00000   0.00000   0.00000   3.14159
   D24        0.00000  -0.00000   0.00000   0.00000   0.00000   0.00000
         Item               Value     Threshold  Converged?
 Maximum Force            0.000061     0.000450     YES
 RMS     Force            0.000022     0.000300     YES
 Maximum Displacement     0.000492     0.001800     YES
 RMS     Displacement     0.000163     0.001200     YES
 Predicted change in Energy=-6.613282D-08
 Optimization completed.
    -- Stationary point found.
                           ----------------------------
                           !   Optimized Parameters   !
                           ! (Angstroms and Degrees)  !
 --------------------------                            --------------------------
 ! Name  Definition              Value          Derivative Info.                !
 --------------------------------------------------------------------------------
 ! R1    R(1,2)                  1.3908         -DE/DX =    0.0                 !
 ! R2    R(1,6)                  1.3885         -DE/DX =    0.0                 !
 ! R3    R(1,8)                  1.0824         -DE/DX =    0.0                 !
 ! R4    R(2,3)                  1.391          -DE/DX =    0.0                 !
 ! R5    R(2,9)                  1.0833         -DE/DX =    0.0                 !
 ! R6    R(3,4)                  1.391          -DE/DX =    0.0                 !
 ! R7    R(3,10)                 1.083          -DE/DX =    0.0                 !
 ! R8    R(4,5)                  1.3908         -DE/DX =    0.0                 !
 ! R9    R(4,11)                 1.0833         -DE/DX =    0.0                 !
 ! R10   R(5,6)                  1.3885         -DE/DX =    0.0                 !
 ! R11   R(5,12)                 1.0824         -DE/DX =    0.0                 !
 ! R12   R(6,7)                  1.7451         -DE/DX =    0.0                 !
 ! A1    A(2,1,6)              118.9529         -DE/DX =    0.0                 !
 ! A2    A(2,1,8)              121.1887         -DE/DX =    0.0                 !
 ! A3    A(6,1,8)              119.8584         -DE/DX =    0.0                 !
 ! A4    A(1,2,3)              120.429          -DE/DX =    0.0                 !
 ! A5    A(1,2,9)              119.3638         -DE/DX =    0.0                 !
 ! A6    A(3,2,9)              120.2072         -DE/DX =    0.0                 !
 ! A7    A(2,3,4)              119.7863         -DE/DX =    0.0001              !
 ! A8    A(2,3,10)             120.1068         -DE/DX =    0.0                 !
 ! A9    A(4,3,10)             120.1068         -DE/DX =    0.0                 !
 ! A10   A(3,4,5)              120.429          -DE/DX =    0.0                 !
 ! A11   A(3,4,11)             120.2072         -DE/DX =    0.0                 !
 ! A12   A(5,4,11)             119.3638         -DE/DX =    0.0                 !
 ! A13   A(4,5,6)              118.9529         -DE/DX =    0.0                 !
 ! A14   A(4,5,12)             121.1887         -DE/DX =    0.0                 !
 ! A15   A(6,5,12)             119.8584         -DE/DX =    0.0                 !
 ! A16   A(1,6,5)              121.4499         -DE/DX =    0.0001              !
 ! A17   A(1,6,7)              119.275          -DE/DX =    0.0                 !
 ! A18   A(5,6,7)              119.275          -DE/DX =    0.0                 !
 ! D1    D(6,1,2,3)              0.0            -DE/DX =    0.0                 !
 ! D2    D(6,1,2,9)            180.0            -DE/DX =    0.0                 !
 ! D3    D(8,1,2,3)            180.0            -DE/DX =    0.0                 !
 ! D4    D(8,1,2,9)              0.0            -DE/DX =    0.0                 !
 ! D5    D(2,1,6,5)              0.0            -DE/DX =    0.0                 !
 ! D6    D(2,1,6,7)            180.0            -DE/DX =    0.0                 !
 ! D7    D(8,1,6,5)            180.0            -DE/DX =    0.0                 !
 ! D8    D(8,1,6,7)              0.0            -DE/DX =    0.0                 !
 ! D9    D(1,2,3,4)              0.0            -DE/DX =    0.0                 !
 ! D10   D(1,2,3,10)           180.0            -DE/DX =    0.0                 !
 ! D11   D(9,2,3,4)            180.0            -DE/DX =    0.0                 !
 ! D12   D(9,2,3,10)             0.0            -DE/DX =    0.0                 !
 ! D13   D(2,3,4,5)              0.0            -DE/DX =    0.0                 !
 ! D14   D(2,3,4,11)           180.0            -DE/DX =    0.0                 !
 ! D15   D(10,3,4,5)           180.0            -DE/DX =    0.0                 !
 ! D16   D(10,3,4,11)            0.0            -DE/DX =    0.0                 !
 ! D17   D(3,4,5,6)              0.0            -DE/DX =    0.0                 !
 ! D18   D(3,4,5,12)           180.0            -DE/DX =    0.0                 !
 ! D19   D(11,4,5,6)           180.0            -DE/DX =    0.0                 !
 ! D20   D(11,4,5,12)            0.0            -DE/DX =    0.0                 !
 ! D21   D(4,5,6,1)              0.0            -DE/DX =    0.0                 !
 ! D22   D(4,5,6,7)            180.0            -DE/DX =    0.0                 !
 ! D23   D(12,5,6,1)           180.0            -DE/DX =    0.0                 !
 ! D24   D(12,5,6,7)             0.0            -DE/DX =    0.0                 !
 --------------------------------------------------------------------------------
 GradGradGradGradGradGradGradGradGradGradGradGradGradGradGradGradGradGrad


 ----------------------------------------------------------------------

 Electric dipole moment (input orientation):
 (Debye = 10**-18 statcoulomb cm , SI units = C m)
                  (au)            (Debye)         (10**-30 SI)
   Tot        0.736257D+00      0.187138D+01      0.624225D+01
   x          0.627268D+00      0.159436D+01      0.531820D+01
   y          0.385499D+00      0.979841D+00      0.326840D+01
   z          0.000000D+00      0.000000D+00      0.000000D+00

 Dipole polarizability, Alpha (input orientation).
 (esu units = cm**3 , SI units = C**2 m**2 J**-1)
 Alpha(0;0):
               (au)            (10**-24 esu)      (10**-40 SI)
   iso        0.768638D+02      0.113900D+02      0.126731D+02
   aniso      0.509837D+02      0.755501D+01      0.840608D+01
   xx         0.976178D+02      0.144655D+02      0.160950D+02
   yx         0.990370D+01      0.146758D+01      0.163290D+01
   yy         0.875894D+02      0.129794D+02      0.144415D+02
   zx         0.000000D+00      0.000000D+00      0.000000D+00
   zy         0.000000D+00      0.000000D+00      0.000000D+00
   zz         0.453843D+02      0.672525D+01      0.748285D+01

 ----------------------------------------------------------------------

 Dipole orientation:
     6         -1.82440718          2.96859713         -4.85098262
     6         -1.81666936          2.95600649         -2.22284166
     6         -0.62604494          1.01867349         -0.90431704
     6          0.56457947         -0.91865951         -2.22284163
     6          0.57231730         -0.93125017         -4.85098261
     6         -0.62604494          1.01867348         -6.13404538
    17         -0.62604494          1.01867347         -9.43176996
     1         -2.74369824          4.46442812         -5.90037642
     1         -2.74788071          4.47123365         -1.20897854
     1         -0.62604495          1.01867349          1.14219454
     1          1.49579081         -2.43388667         -1.20897852
     1          1.49160837         -2.42708118         -5.90037638

 Electric dipole moment (dipole orientation):
 (Debye = 10**-18 statcoulomb cm , SI units = C m)
                  (au)            (Debye)         (10**-30 SI)
   Tot        0.736257D+00      0.187138D+01      0.624225D+01
   x          0.000000D+00      0.000000D+00      0.000000D+00
   y          0.000000D+00      0.000000D+00      0.000000D+00
   z          0.736257D+00      0.187138D+01      0.624225D+01

 Dipole polarizability, Alpha (dipole orientation).
 (esu units = cm**3 , SI units = C**2 m**2 J**-1)
 Alpha(0;0):
               (au)            (10**-24 esu)      (10**-40 SI)
   iso        0.768638D+02      0.113900D+02      0.126731D+02
   aniso      0.509837D+02      0.755501D+01      0.840608D+01
   xx         0.552862D+02      0.819257D+01      0.911546D+01
   yx        -0.161120D+02     -0.238755D+01     -0.265651D+01
   yy         0.716010D+02      0.106102D+02      0.118054D+02
   zx         0.000000D+00      0.000000D+00      0.000000D+00
   zy         0.000000D+00      0.000000D+00      0.000000D+00
   zz         0.103704D+03      0.153674D+02      0.170985D+02

 ----------------------------------------------------------------------
 1\1\GINC-SH03-01N07\Freq\RM062X\6-311++G(d,p)\C6H5Cl1\JLAPIER\09-Dec-2
 025\0\\#N Geom=AllCheck Guess=TCheck SCRF=Check GenChk RM062X/6-311++G
 (d,p) Freq\\1-Chloro-Benzene (1)\\0,1\C,-3.152462688,0.22683478,0.\C,-
 1.9634909916,0.94836055,0.\C,-0.7389930589,0.2884964256,0.\C,-0.703388
 3603,-1.1020243851,0.\C,-1.8841707062,-1.836875533,0.\C,-3.0967756194,
 -1.1605231839,0.\Cl,-4.5835292315,-2.0742355738,0.\H,-4.1120416433,0.7
 276351442,0.\H,-1.9991744718,2.031098927,0.\H,0.1836608534,0.855530737
 4,0.\H,0.2464798006,-1.6229333776,0.\H,-1.8708138828,-2.9191945115,0.\
 \Version=ES64L-G16RevB.01\State=1-A'\HF=-691.7997234\RMSD=3.172e-09\RM
 SF=2.628e-05\ZeroPoint=0.0915904\Thermal=0.0970565\Dipole=0.6272679,0.
 3854993,0.\DipoleDeriv=-0.1446974,-0.147309,0.,-0.1592656,-0.1614164,0
 .,0.,0.,-0.1234557,0.0278054,0.0270041,0.,-0.0222419,0.0814739,0.,0.,0
 .,-0.1220961,-0.012825,0.0489187,0.,0.0489187,-0.0623595,0.,0.,0.,-0.1
 454715,0.0724429,-0.0448416,0.,0.0044044,0.0368364,0.,0.,0.,-0.1220961
 ,-0.2815527,-0.0899766,0.,-0.0780199,-0.0245611,0.,0.,0.,-0.1234557,0.
 9011865,0.5296532,0.,0.5296532,0.3648658,0.,0.,0.,-0.0053005,-0.635355
 5,-0.3313506,0.,-0.3313506,-0.2998338,0.,0.,0.,-0.0755144,0.0006084,0.
 0372276,0.,0.030009,0.0690939,0.,0.,0.,0.1448676,0.0602081,-0.0026952,
 0.,-0.0032065,-0.0635534,0.,0.,0.,0.1413423,-0.0293568,-0.0631947,0.,-
 0.0631947,0.0346334,0.,0.,0.,0.1449703,-0.0406803,0.0478727,0.,0.04838
 4,0.037335,0.,0.,0.,0.1413423,0.0822165,-0.0113086,0.,-0.0040901,-0.01
 25142,0.,0.,0.,0.1448675\Polar=97.6177636,9.9036963,87.5893965,0.,0.,4
 5.3842639\Quadrupole=1.2959044,2.5985365,-3.894441,-1.286438,0.,0.\PG=
 CS [SG(C6H5Cl1)]\NImag=0\\0.75169161,-0.03634837,0.68768949,0.,0.,0.13
 217370,-0.28964701,-0.05475469,0.,0.67607678,-0.13385845,-0.18874479,0
 .,-0.00400564,0.75363731,0.,0.,-0.06192501,0.,0.,0.13764767,-0.0582244
 2,-0.03421654,0.,-0.29675152,0.12677075,0.,0.73559592,0.02383152,0.074
 42244,0.,0.05042804,-0.17968550,0.,0.03821929,0.69689554,0.,0.,0.00744
 043,0.,0.,-0.06389128,0.,0.,0.13571316,-0.01872186,-0.03306406,0.,0.03
 767922,0.03097017,0.,-0.13216092,0.04343950,0.,0.73458388,-0.03253160,
 -0.06476362,0.,0.08976679,-0.02344920,0.,-0.03290322,-0.34427613,0.,-0
 .03362746,0.69513022,0.,0.,-0.00525284,0.,0.,0.00746435,0.,0.,-0.06389
 128,0.,0.,0.13764767,0.03602866,0.08587798,0.,-0.08180419,-0.00112585,
 0.,0.04317299,-0.08555346,0.,-0.28534201,-0.05693426,0.,0.67145171,0.0
 2753045,-0.02138937,0.,-0.00059338,-0.00168129,0.,-0.02750539,-0.02697
 497,0.,-0.13603802,-0.19304977,0.,0.00427659,0.76792935,0.,0.,0.008319
 38,0.,0.,-0.00525284,0.,0.,0.00744044,0.,0.,-0.06192501,0.,0.,0.132173
 70,-0.11824408,-0.01623198,0.,0.04464118,-0.02425322,0.,-0.02415023,0.
 04010465,0.,-0.06231264,-0.03995745,0.,-0.27093819,0.14034433,0.,0.567
 99163,0.06303620,-0.33377556,0.,-0.09410754,-0.02980316,0.,0.04010465,
 -0.06475973,0.,0.02989687,0.07715066,0.,0.06107616,-0.18108144,0.,-0.0
 6208072,0.63085384,0.,0.,-0.06472324,0.,0.,0.00620889,0.,0.,-0.0070212
 5,0.,0.,0.00620889,0.,0.,-0.06472323,0.,0.,0.12707301,-0.01447662,-0.0
 1069169,0.,0.00261755,-0.00087941,0.,-0.00126643,-0.00222833,0.,-0.000
 44539,0.00740886,0.,-0.03937325,-0.02648050,0.,-0.13560523,-0.05848998
 ,0.,0.18859117,-0.03908552,-0.02055319,0.,0.00585811,-0.00375121,0.,-0
 .00222833,0.00098995,0.,0.00067134,-0.00068827,0.,0.00191333,0.0043434
 4,0.,-0.05848998,-0.07637896,0.,0.09278644,0.09463670,0.,0.,0.00437771
 ,0.,0.,0.00526790,0.,0.,-0.00092299,0.,0.,0.00526790,0.,0.,0.00437771,
 0.,0.,-0.02370214,0.,0.,0.01177913,-0.28530536,0.12228542,0.,-0.016425
 14,0.01399511,0.,-0.00247936,-0.00382430,0.,0.00027850,-0.00080635,0.,
 0.00154429,-0.00051290,0.,0.00115826,-0.00288660,0.,0.00115675,-0.0005
 6122,0.,0.29995280,0.11930683,-0.12053124,0.,-0.01569456,0.01229356,0.
 ,-0.00350094,-0.00114893,0.,-0.00099506,-0.00089390,0.,-0.00097541,-0.
 00574122,0.,0.02838940,-0.01006700,0.,0.00053147,0.00080597,0.,-0.1282
 1975,0.12458881,0.,0.,-0.03630916,0.,0.,0.00341267,0.,0.,0.00754083,0.
 ,0.,-0.00104855,0.,0.,0.00618945,0.,0.,0.00276093,0.,0.,-0.00274476,0.
 ,0.,0.02504878,0.00487839,-0.02790055,0.,-0.05930820,0.00958209,0.,0.0
 0457851,0.02821941,0.,-0.00472190,0.00263165,0.,-0.00144507,-0.0001526
 3,0.,-0.00326650,-0.00237654,0.,-0.00074213,-0.00142364,0.,0.00080408,
 0.00051411,0.,0.05825600,0.00305513,-0.01156370,0.,0.00943677,-0.34549
 224,0.,-0.00265052,-0.00961125,0.,0.00301017,0.00061706,0.,-0.00008281
 ,0.00073962,0.,-0.00239498,0.00089389,0.,-0.00029491,-0.00067566,0.,-0
 .00015906,0.00063764,0.,-0.00996190,0.36448118,0.,0.,0.00355553,0.,0.,
 -0.03817293,0.,0.,0.00375565,0.,0.,0.00716594,0.,0.,-0.00106155,0.,0.,
 0.00787921,0.,0.,-0.00005457,0.,0.,-0.00425087,0.,0.,0.02612261,-0.003
 32377,0.00369540,0.,-0.01749937,-0.01674800,0.,-0.26753015,-0.12794477
 ,0.,0.00485072,0.00298775,0.,0.00171713,0.00076986,0.,0.00010290,0.001
 21585,0.,0.00005981,-0.00014839,0.,-0.00085969,-0.00084412,0.,0.000804
 74,0.00024400,0.,0.28102920,0.00332203,-0.00054361,0.,0.01430347,0.011
 81745,0.,-0.12794477,-0.13797477,0.,-0.02806372,-0.01053264,0.,0.00114
 322,-0.00558450,0.,0.00121585,-0.00112826,0.,-0.00014839,0.00021007,0.
 ,0.00070788,0.00043894,0.,-0.00055820,0.00061792,0.,0.13697889,0.14232
 598,0.,0.,0.00721560,0.,0.,0.00312318,0.,0.,-0.03746021,0.,0.,0.003123
 18,0.,0.,0.00721560,0.,0.,-0.00060121,0.,0.,-0.00084655,0.,0.,0.000102
 63,0.,0.,-0.00407123,0.,0.,0.02616761,0.00019899,-0.00091518,0.,0.0018
 0135,-0.00029252,0.,0.00358803,-0.00214904,0.,-0.27943673,0.12088656,0
 .,-0.01822150,0.01475047,0.,-0.00187786,-0.00309804,0.,-0.00138179,0.0
 0002894,0.,-0.00003957,0.00006791,0.,0.00005306,-0.00019457,0.,0.00052
 942,0.00038339,0.,0.29397193,-0.00098501,-0.00090444,0.,-0.00067103,-0
 .00590619,0.,0.02872088,-0.00862076,0.,0.12103188,-0.12536371,0.,-0.01
 620521,0.01153619,0.,-0.00307960,-0.00049475,0.,-0.00109978,-0.0000360
 0,0.,0.00008217,0.00007111,0.,0.00141926,-0.00056699,0.,-0.00041880,0.
 00089324,0.,-0.12930350,0.12876526,0.,0.,-0.00106155,0.,0.,0.00716594,
 0.,0.,0.00375565,0.,0.,-0.03817293,0.,0.,0.00355553,0.,0.,0.00787921,0
 .,0.,-0.00005457,0.,0.,-0.00090313,0.,0.,0.00003533,0.,0.,-0.00407123,
 0.,0.,0.02612261,-0.00485451,0.00226426,0.,-0.00138065,-0.00015504,0.,
 -0.00437241,-0.00254251,0.,0.00574913,-0.02692127,0.,-0.05679056,0.003
 61112,0.,0.00250078,0.02770969,0.,0.00086555,0.00067891,0.,0.00021445,
 0.00142014,0.,0.00010900,-0.00000732,0.,0.00011907,-0.00133966,0.,0.00
 081468,0.00050874,0.,0.05702547,0.00272678,0.00065758,0.,0.00003367,0.
 00076525,0.,-0.00286587,0.00074411,0.,0.00276841,-0.00988070,0.,0.0065
 8972,-0.34904605,0.,-0.00356631,-0.01140952,0.,-0.00041379,0.00109717,
 0.,-0.00010039,-0.00045372,0.,0.00000695,-0.00007747,0.,0.00021234,-0.
 00053982,0.,-0.00016443,0.00062704,0.,-0.00522707,0.36751614,0.,0.,0.0
 0618945,0.,0.,-0.00104855,0.,0.,0.00754083,0.,0.,0.00341267,0.,0.,-0.0
 3630916,0.,0.,0.00276093,0.,0.,-0.00274476,0.,0.,0.00020118,0.,0.,-0.0
 0090313,0.,0.,0.00010263,0.,0.,-0.00425087,0.,0.,0.02504878\\0.0000451
 6,-0.00000134,0.,0.00005263,-0.00004784,0.,0.00004552,0.00002797,0.,-0
 .00001890,0.00006858,0.,0.00001920,0.00004089,0.,-0.00006098,-0.000037
 47,0.,0.00000069,0.00000043,0.,-0.00000699,-0.00002113,0.,-0.00002696,
 -0.00000921,0.,-0.00000698,-0.00000429,0.,-0.00002039,-0.00001989,0.,-
 0.00002201,0.00000331,0.\\\@


 GOOD SENSE ABOUT TRIVIALITIES IS BETTER THAN NONSENSE
 ABOUT THINGS THAT MATTER

                                       -- MAX BEERBOHM
 Job cpu time:       0 days  0 hours 16 minutes 32.7 seconds.
 Elapsed time:       0 days  0 hours  4 minutes  9.3 seconds.
 File lengths (MBytes):  RWF=     86 Int=      0 D2E=      0 Chk=     34 Scr=      1
 Normal termination of Gaussian 16 at Tue Dec  9 13:48:35 2025.
