 Entering Gaussian System, Link 0=g16
 Initial command:
 /share/software/user/restricted/gaussian/g16.B01/l1.exe "/home/users/jlapier/Chloroaromatics/Gau-12068.inp" -scrdir="/home/users/jlapier/Chloroaromatics/"
 Entering Link 1 = /share/software/user/restricted/gaussian/g16.B01/l1.exe PID=     12069.
  
 Copyright (c) 1988-2017, Gaussian, Inc.  All Rights Reserved.
  
 This is part of the Gaussian(R) 16 program.  It is based on
 the Gaussian(R) 09 system (copyright 2009, Gaussian, Inc.),
 the Gaussian(R) 03 system (copyright 2003, Gaussian, Inc.),
 the Gaussian(R) 98 system (copyright 1998, Gaussian, Inc.),
 the Gaussian(R) 94 system (copyright 1995, Gaussian, Inc.),
 the Gaussian 92(TM) system (copyright 1992, Gaussian, Inc.),
 the Gaussian 90(TM) system (copyright 1990, Gaussian, Inc.),
 the Gaussian 88(TM) system (copyright 1988, Gaussian, Inc.),
 the Gaussian 86(TM) system (copyright 1986, Carnegie Mellon
 University), and the Gaussian 82(TM) system (copyright 1983,
 Carnegie Mellon University). Gaussian is a federally registered
 trademark of Gaussian, Inc.
  
 This software contains proprietary and confidential information,
 including trade secrets, belonging to Gaussian, Inc.
  
 This software is provided under written license and may be
 used, copied, transmitted, or stored only in accord with that
 written license.
  
 The following legend is applicable only to US Government
 contracts under FAR:
  
                    RESTRICTED RIGHTS LEGEND
  
 Use, reproduction and disclosure by the US Government is
 subject to restrictions as set forth in subparagraphs (a)
 and (c) of the Commercial Computer Software - Restricted
 Rights clause in FAR 52.227-19.
  
 Gaussian, Inc.
 340 Quinnipiac St., Bldg. 40, Wallingford CT 06492
  
  
 ---------------------------------------------------------------
 Warning -- This program may not be used in any manner that
 competes with the business of Gaussian, Inc. or will provide
 assistance to any competitor of Gaussian, Inc.  The licensee
 of this program is prohibited from giving any competitor of
 Gaussian, Inc. access to this program.  By using this program,
 the user acknowledges that Gaussian, Inc. is engaged in the
 business of creating and licensing software in the field of
 computational chemistry and represents and warrants to the
 licensee that it is not a competitor of Gaussian, Inc. and that
 it will not use this program in any manner prohibited above.
 ---------------------------------------------------------------
  

 Cite this work as:
 Gaussian 16, Revision B.01,
 M. J. Frisch, G. W. Trucks, H. B. Schlegel, G. E. Scuseria, 
 M. A. Robb, J. R. Cheeseman, G. Scalmani, V. Barone, 
 G. A. Petersson, H. Nakatsuji, X. Li, M. Caricato, A. V. Marenich, 
 J. Bloino, B. G. Janesko, R. Gomperts, B. Mennucci, H. P. Hratchian, 
 J. V. Ortiz, A. F. Izmaylov, J. L. Sonnenberg, D. Williams-Young, 
 F. Ding, F. Lipparini, F. Egidi, J. Goings, B. Peng, A. Petrone, 
 T. Henderson, D. Ranasinghe, V. G. Zakrzewski, J. Gao, N. Rega, 
 G. Zheng, W. Liang, M. Hada, M. Ehara, K. Toyota, R. Fukuda, 
 J. Hasegawa, M. Ishida, T. Nakajima, Y. Honda, O. Kitao, H. Nakai, 
 T. Vreven, K. Throssell, J. A. Montgomery, Jr., J. E. Peralta, 
 F. Ogliaro, M. J. Bearpark, J. J. Heyd, E. N. Brothers, K. N. Kudin, 
 V. N. Staroverov, T. A. Keith, R. Kobayashi, J. Normand, 
 K. Raghavachari, A. P. Rendell, J. C. Burant, S. S. Iyengar, 
 J. Tomasi, M. Cossi, J. M. Millam, M. Klene, C. Adamo, R. Cammi, 
 J. W. Ochterski, R. L. Martin, K. Morokuma, O. Farkas, 
 J. B. Foresman, and D. J. Fox, Gaussian, Inc., Wallingford CT, 2016.
 
 ******************************************
 Gaussian 16:  ES64L-G16RevB.01 20-Dec-2017
                 9-Dec-2025 
 ******************************************
 %mem=8GB
 %nprocshare=4
 Will use up to    4 processors via shared memory.
 %oldchk=geometry_chks/_2345ClBzNeutralRadical.chk
 %chk=frequency_chks/_2345ClBzNeutralRadical_Freq.chk
 Copying data from "geometry_chks/_2345ClBzNeutralRadical.chk" to current chk file "frequency_chks/_2345ClBzNeutralRadical_Freq.chk"
 IOpt=  2 FromEx=T IUOpen= 4 IOptOp= 5 NList=   0 IFRang= 0 IUIn= 4 IUOut= 2.
 -------------------------------------------------------
 # opt freq 6-311++g(d,p) guess=read geom=allcheck m062x
 -------------------------------------------------------
 1/18=20,19=15,26=3,29=7,38=1/1,3;
 2/9=110,12=2,40=1/2;
 3/5=4,6=6,7=1111,11=2,14=-4,25=1,30=1,71=1,74=-55,116=-2/1,2,3;
 4/5=1/1;
 5/5=2,38=6/2;
 6/7=2,8=2,9=2,10=2,28=1/1;
 7//1,2,3,16;
 1/18=20,19=15,26=3/3(2);
 2/9=110/2;
 99//99;
 2/9=110/2;
 3/5=4,6=6,7=1111,11=2,14=-2,25=1,30=1,71=1,74=-55/1,2,3;
 4/5=5,16=3,69=1/1;
 5/5=2,38=5/2;
 7//1,2,3,16;
 1/18=20,19=15,26=3/3(-5);
 2/9=110/2;
 6/7=2,8=2,9=2,10=2,19=2,28=1/1;
 99/9=1/99;
 Structure from the checkpoint file:  "frequency_chks/_2345ClBzNeutralRadical_Freq.chk"
 ---------------------------------
 Neutral Radical (removed 1) _2345
 ---------------------------------
 Charge =  0 Multiplicity = 2
 Redundant internal coordinates found in file.  (old form).
 C,0,-3.2210523349,0.1679258962,0.
 C,0,-2.0093167131,0.9091494082,0.
 C,0,-0.7716526696,0.220602331,0.
 C,0,-0.7208040765,-1.1939964124,0.
 C,0,-1.9196669782,-1.944411463,0.
 C,0,-3.0644645974,-1.1986904349,0.
 Cl,0,-4.7348616361,0.8915813665,0.
 Cl,0,-2.0574659174,2.5936471256,0.
 Cl,0,0.6693180632,1.1044579145,0.
 Cl,0,0.753176009,-2.0154878221,0.
 H,0,-1.9230791489,-3.0422579095,0.
 Recover connectivity data from disk.

 GradGradGradGradGradGradGradGradGradGradGradGradGradGradGradGradGradGrad
 Berny optimization.
 Initialization pass.
                           ----------------------------
                           !    Initial Parameters    !
                           ! (Angstroms and Degrees)  !
 --------------------------                            --------------------------
 ! Name  Definition              Value          Derivative Info.                !
 --------------------------------------------------------------------------------
 ! R1    R(1,2)                  1.4205         estimate D2E/DX2                !
 ! R2    R(1,6)                  1.3756         estimate D2E/DX2                !
 ! R3    R(1,7)                  1.6779         estimate D2E/DX2                !
 ! R4    R(2,3)                  1.4163         estimate D2E/DX2                !
 ! R5    R(2,8)                  1.6852         estimate D2E/DX2                !
 ! R6    R(3,4)                  1.4155         estimate D2E/DX2                !
 ! R7    R(3,9)                  1.6904         estimate D2E/DX2                !
 ! R8    R(4,5)                  1.4144         estimate D2E/DX2                !
 ! R9    R(4,10)                 1.6874         estimate D2E/DX2                !
 ! R10   R(5,6)                  1.3663         estimate D2E/DX2                !
 ! R11   R(5,11)                 1.0979         estimate D2E/DX2                !
 ! A1    A(2,1,6)              114.9178         estimate D2E/DX2                !
 ! A2    A(2,1,7)              122.9962         estimate D2E/DX2                !
 ! A3    A(6,1,7)              122.086          estimate D2E/DX2                !
 ! A4    A(1,2,3)              119.4573         estimate D2E/DX2                !
 ! A5    A(1,2,8)              119.817          estimate D2E/DX2                !
 ! A6    A(3,2,8)              120.7257         estimate D2E/DX2                !
 ! A7    A(2,3,4)              121.1471         estimate D2E/DX2                !
 ! A8    A(2,3,9)              119.3877         estimate D2E/DX2                !
 ! A9    A(4,3,9)              119.4653         estimate D2E/DX2                !
 ! A10   A(3,4,5)              119.9854         estimate D2E/DX2                !
 ! A11   A(3,4,10)             121.1908         estimate D2E/DX2                !
 ! A12   A(5,4,10)             118.8238         estimate D2E/DX2                !
 ! A13   A(4,5,6)              114.8757         estimate D2E/DX2                !
 ! A14   A(4,5,11)             122.2221         estimate D2E/DX2                !
 ! A15   A(6,5,11)             122.9021         estimate D2E/DX2                !
 ! A16   A(1,6,5)              129.6167         estimate D2E/DX2                !
 ! D1    D(6,1,2,3)              0.0            estimate D2E/DX2                !
 ! D2    D(6,1,2,8)            180.0            estimate D2E/DX2                !
 ! D3    D(7,1,2,3)            180.0            estimate D2E/DX2                !
 ! D4    D(7,1,2,8)              0.0            estimate D2E/DX2                !
 ! D5    D(2,1,6,5)              0.0            estimate D2E/DX2                !
 ! D6    D(7,1,6,5)            180.0            estimate D2E/DX2                !
 ! D7    D(1,2,3,4)              0.0            estimate D2E/DX2                !
 ! D8    D(1,2,3,9)            180.0            estimate D2E/DX2                !
 ! D9    D(8,2,3,4)            180.0            estimate D2E/DX2                !
 ! D10   D(8,2,3,9)              0.0            estimate D2E/DX2                !
 ! D11   D(2,3,4,5)              0.0            estimate D2E/DX2                !
 ! D12   D(2,3,4,10)           180.0            estimate D2E/DX2                !
 ! D13   D(9,3,4,5)            180.0            estimate D2E/DX2                !
 ! D14   D(9,3,4,10)             0.0            estimate D2E/DX2                !
 ! D15   D(3,4,5,6)              0.0            estimate D2E/DX2                !
 ! D16   D(3,4,5,11)           180.0            estimate D2E/DX2                !
 ! D17   D(10,4,5,6)           180.0            estimate D2E/DX2                !
 ! D18   D(10,4,5,11)            0.0            estimate D2E/DX2                !
 ! D19   D(4,5,6,1)              0.0            estimate D2E/DX2                !
 ! D20   D(11,5,6,1)           180.0            estimate D2E/DX2                !
 --------------------------------------------------------------------------------
 Trust Radius=3.00D-01 FncErr=1.00D-07 GrdErr=1.00D-06 EigMax=2.50D+02 EigMin=1.00D-04
 Number of steps in this run=     57 maximum allowed number of steps=    100.
 GradGradGradGradGradGradGradGradGradGradGradGradGradGradGradGradGradGrad

                          Input orientation:                          
 ---------------------------------------------------------------------
 Center     Atomic      Atomic             Coordinates (Angstroms)
 Number     Number       Type             X           Y           Z
 ---------------------------------------------------------------------
      1          6           0       -3.221052    0.167926   -0.000000
      2          6           0       -2.009317    0.909149   -0.000000
      3          6           0       -0.771653    0.220602    0.000000
      4          6           0       -0.720804   -1.193996    0.000000
      5          6           0       -1.919667   -1.944411    0.000000
      6          6           0       -3.064465   -1.198690    0.000000
      7         17           0       -4.734862    0.891581   -0.000000
      8         17           0       -2.057466    2.593647   -0.000000
      9         17           0        0.669318    1.104458    0.000000
     10         17           0        0.753176   -2.015488    0.000000
     11          1           0       -1.923079   -3.042258    0.000000
 ---------------------------------------------------------------------
                    Distance matrix (angstroms):
                    1          2          3          4          5
     1  C    0.000000
     2  C    1.420463   0.000000
     3  C    2.449966   1.416301   0.000000
     4  C    2.847117   2.466473   1.415512   0.000000
     5  C    2.481043   2.854969   2.450555   1.414353   0.000000
     6  C    1.375558   2.357186   2.696549   2.343665   1.366258
     7  Cl   1.677884   2.725602   4.019607   4.523527   3.996020
     8  Cl   2.690364   1.685186   2.699010   4.016579   4.540150
     9  Cl   4.001509   2.685746   1.690443   2.686137   3.999806
    10  Cl   4.534511   4.023042   2.706511   1.687443   2.673788
    11  H    3.462660   3.952348   3.460064   2.204889   1.097852
                    6          7          8          9         10
     6  C    0.000000
     7  Cl   2.675717   0.000000
     8  Cl   3.923757   3.172613   0.000000
     9  Cl   4.386984   5.408371   3.106933   0.000000
    10  Cl   3.904041   6.210443   5.398503   3.121073   0.000000
    11  H    2.168295   4.835412   5.637507   4.890376   2.866461
                   11
    11  H    0.000000
 Stoichiometry    C6HCl4(2)
 Framework group  CS[SG(C6HCl4)]
 Deg. of freedom    19
 Full point group                 CS      NOp   2
 Largest Abelian subgroup         CS      NOp   2
 Largest concise Abelian subgroup C1      NOp   1
                         Standard orientation:                         
 ---------------------------------------------------------------------
 Center     Atomic      Atomic             Coordinates (Angstroms)
 Number     Number       Type             X           Y           Z
 ---------------------------------------------------------------------
      1          6           0        0.032449    1.664691    0.000000
      2          6           0       -0.698743    0.446877   -0.000000
      3          6           0        0.000000   -0.785060   -0.000000
      4          6           0        1.414970   -0.824226    0.000000
      5          6           0        2.155461    0.380792    0.000000
      6          6           0        1.400312    1.519393    0.000000
      7         17           0       -0.703681    3.172474   -0.000000
      8         17           0       -2.383581    0.481115   -0.000000
      9         17           0       -0.871927   -2.233280   -0.000000
     10         17           0        2.248605   -2.291373    0.000000
     11          1           0        3.253241    0.393270    0.000000
 ---------------------------------------------------------------------
 Rotational constants (GHZ):           1.1990654           0.5514336           0.3777237
 Standard basis: 6-311++G(d,p) (5D, 7F)
 There are   200 symmetry adapted cartesian basis functions of A'  symmetry.
 There are    69 symmetry adapted cartesian basis functions of A"  symmetry.
 There are   190 symmetry adapted basis functions of A'  symmetry.
 There are    69 symmetry adapted basis functions of A"  symmetry.
   259 basis functions,   437 primitive gaussians,   269 cartesian basis functions
    53 alpha electrons       52 beta electrons
       nuclear repulsion energy       838.5576906604 Hartrees.
 NAtoms=   11 NActive=   11 NUniq=   11 SFac= 1.00D+00 NAtFMM=   60 NAOKFM=F Big=F
 Integral buffers will be    131072 words long.
 Raffenetti 2 integral format.
 Two-electron integral symmetry is turned on.
 One-electron integrals computed using PRISM.
 NBasis=   259 RedAO= T EigKep=  3.53D-06  NBF=   190    69
 NBsUse=   257 1.00D-06 EigRej=  8.64D-07 NBFU=   188    69
 Initial guess from the checkpoint file:  "frequency_chks/_2345ClBzNeutralRadical_Freq.chk"
 B after Tr=    -0.000000    0.000000   -0.000000
         Rot=    1.000000   -0.000000    0.000000    0.000000 Ang=   0.00 deg.
 Initial guess orbital symmetries:
 Alpha Orbitals:
       Occupied  (A') (A') (A') (A') (A') (A') (A') (A') (A') (A')
                 (A') (A') (A') (A") (A') (A') (A") (A") (A") (A')
                 (A') (A') (A") (A') (A') (A") (A") (A") (A") (A')
                 (A') (A') (A') (A") (A') (A') (A') (A') (A') (A')
                 (A') (A') (A') (A') (A') (A') (A') (A') (A') (A')
                 (A') (A') (A')
       Virtual   (A') (A') (A') (A') (A') (A') (A') (A') (A') (A')
                 (A') (A') (A') (A') (A') (A') (A') (A') (A') (A')
                 (A') (A') (A') (A') (A') (A') (A') (A') (A') (A')
                 (A') (A') (A') (A') (A') (A') (A') (A') (A') (A')
                 (A') (A') (A') (A') (A') (A') (A') (A') (A') (A')
                 (A') (A') (A') (A') (A') (A') (A') (A') (A') (A')
                 (A') (A') (A') (A') (A') (A') (A') (A') (A') (A')
                 (A') (A') (A') (A') (A') (A') (A') (A') (A') (A')
                 (A') (A') (A') (A') (A') (A') (A') (A') (A') (A')
                 (A') (A') (A') (A') (A') (A') (A') (A') (A') (A')
                 (A') (A') (A') (A') (A') (A') (A') (A') (A') (A')
                 (A') (A') (A') (A') (A') (A') (A') (A') (A') (A')
                 (A') (A') (A') (A') (A') (A') (A') (A') (A') (A')
                 (A') (A') (A') (A') (A') (A') (A') (A') (A') (A')
                 (A') (A') (A') (A') (A') (A") (A") (A") (A") (A")
                 (A") (A") (A") (A") (A") (A") (A") (A") (A") (A")
                 (A") (A") (A") (A") (A") (A") (A") (A") (A") (A")
                 (A") (A") (A") (A") (A") (A") (A") (A") (A") (A")
                 (A") (A") (A") (A") (A") (A") (A") (A") (A") (A")
                 (A") (A") (A") (A") (A") (A") (A") (A") (A") (A")
                 (A") (A") (A") (A")
 Beta  Orbitals:
       Occupied  (A') (A') (A') (A') (A') (A') (A') (A') (A') (A')
                 (A') (A') (A') (A") (A') (A") (A') (A") (A") (A')
                 (A') (A') (A') (A") (A") (A") (A') (A") (A") (A')
                 (A') (A') (A') (A") (A') (A') (A') (A') (A') (A')
                 (A') (A') (A') (A') (A') (A') (A') (A') (A') (A')
                 (A') (A')
       Virtual   (A') (A') (A') (A') (A') (A') (A') (A') (A') (A')
                 (A') (A') (A') (A') (A') (A') (A') (A') (A') (A')
                 (A') (A') (A') (A') (A') (A') (A') (A') (A') (A')
                 (A') (A') (A') (A') (A') (A') (A') (A') (A') (A')
                 (A') (A') (A') (A') (A') (A') (A') (A') (A') (A')
                 (A') (A') (A') (A') (A') (A') (A') (A') (A') (A')
                 (A') (A') (A') (A') (A') (A') (A') (A') (A') (A')
                 (A') (A') (A') (A') (A') (A') (A') (A') (A') (A')
                 (A') (A') (A') (A') (A') (A') (A') (A') (A') (A')
                 (A') (A') (A') (A') (A') (A') (A') (A') (A') (A')
                 (A') (A') (A') (A') (A') (A') (A') (A') (A') (A')
                 (A') (A') (A') (A') (A') (A') (A') (A') (A') (A')
                 (A') (A') (A') (A') (A') (A') (A') (A') (A') (A')
                 (A') (A') (A') (A') (A') (A') (A') (A') (A') (A')
                 (A') (A') (A') (A') (A') (A') (A") (A") (A") (A")
                 (A") (A") (A") (A") (A") (A") (A") (A") (A") (A")
                 (A") (A") (A") (A") (A") (A") (A") (A") (A") (A")
                 (A") (A") (A") (A") (A") (A") (A") (A") (A") (A")
                 (A") (A") (A") (A") (A") (A") (A") (A") (A") (A")
                 (A") (A") (A") (A") (A") (A") (A") (A") (A") (A")
                 (A") (A") (A") (A") (A")
 Initial guess <Sx>= 0.0000 <Sy>= 0.0000 <Sz>= 0.5000 <S**2>= 0.7500 S= 0.5000
 Keep R1 and R2 ints in memory in symmetry-blocked form, NReq=892001928.
 Requested convergence on RMS density matrix=1.00D-08 within 128 cycles.
 Requested convergence on MAX density matrix=1.00D-06.
 Requested convergence on             energy=1.00D-06.
 No special actions if energy rises.
 EnCoef did     4 forward-backward iterations
 SCF Done:  E(UM062X) =  -2069.89281973     A.U. after   27 cycles
            NFock= 27  Conv=0.65D-08     -V/T= 2.0022
 <Sx>= 0.0000 <Sy>= 0.0000 <Sz>= 0.5000 <S**2>= 0.7634 S= 0.5067
 <L.S>=  0.00000000000    
 Annihilation of the first spin contaminant:
 S**2 before annihilation     0.7634,   after     0.7501

 **********************************************************************

            Population analysis using the SCF Density.

 **********************************************************************

 Orbital symmetries:
 Alpha Orbitals:
       Occupied  (A') (A') (A') (A') (A') (A') (A') (A') (A') (A')
                 (A') (A') (A') (A') (A') (A') (A') (A') (A") (A')
                 (A") (A') (A") (A') (A") (A') (A') (A') (A') (A')
                 (A') (A') (A') (A') (A') (A') (A') (A') (A') (A")
                 (A') (A') (A") (A") (A') (A") (A') (A') (A") (A')
                 (A') (A") (A")
       Virtual   (A") (A") (A') (A') (A') (A') (A') (A') (A") (A')
                 (A') (A") (A") (A') (A') (A') (A") (A') (A") (A')
                 (A") (A') (A') (A') (A') (A") (A") (A') (A') (A")
                 (A') (A') (A") (A') (A') (A') (A') (A") (A') (A')
                 (A') (A') (A') (A') (A') (A') (A') (A') (A') (A')
                 (A') (A') (A') (A") (A') (A") (A') (A') (A") (A')
                 (A') (A") (A') (A') (A") (A') (A') (A") (A") (A')
                 (A") (A") (A') (A') (A') (A') (A") (A') (A') (A")
                 (A') (A') (A") (A') (A') (A") (A') (A') (A') (A")
                 (A") (A") (A") (A') (A') (A') (A') (A') (A') (A')
                 (A') (A") (A") (A') (A') (A') (A') (A") (A') (A')
                 (A') (A') (A') (A") (A') (A") (A') (A") (A") (A')
                 (A') (A') (A') (A") (A') (A') (A') (A") (A') (A')
                 (A') (A") (A") (A") (A') (A') (A") (A') (A') (A')
                 (A") (A") (A') (A") (A") (A") (A') (A') (A') (A')
                 (A') (A') (A') (A') (A') (A') (A') (A") (A') (A')
                 (A") (A") (A") (A") (A') (A") (A') (A') (A') (A')
                 (A') (A') (A') (A') (A') (A') (A') (A') (A') (A')
                 (A') (A') (A') (A') (A') (A') (A') (A') (A") (A")
                 (A") (A") (A') (A') (A') (A') (A') (A') (A') (A')
                 (A') (A') (A') (A')
 Beta  Orbitals:
       Occupied  (A') (A') (A') (A') (A') (A') (A') (A') (A') (A')
                 (A') (A') (A') (A') (A') (A') (A') (A') (A") (A")
                 (A') (A') (A") (A') (A") (A') (A') (A') (A') (A')
                 (A') (A') (A') (A') (A') (A') (A') (A') (A') (A")
                 (A') (A') (A") (A") (A") (A') (A') (A') (A") (A')
                 (A") (A")
       Virtual   (A') (A") (A") (A') (A') (A') (A') (A') (A') (A")
                 (A') (A') (A") (A") (A') (A') (A') (A") (A') (A")
                 (A') (A") (A') (A') (A') (A") (A') (A") (A') (A')
                 (A") (A') (A') (A") (A') (A') (A') (A') (A") (A')
                 (A') (A') (A') (A') (A') (A') (A') (A') (A') (A')
                 (A') (A') (A') (A') (A") (A') (A") (A') (A') (A")
                 (A') (A') (A") (A') (A') (A') (A") (A') (A") (A')
                 (A") (A") (A") (A') (A') (A') (A") (A') (A') (A')
                 (A") (A') (A') (A") (A') (A') (A") (A') (A') (A')
                 (A") (A") (A") (A') (A") (A') (A') (A') (A') (A')
                 (A') (A') (A") (A") (A') (A') (A') (A') (A") (A')
                 (A') (A') (A') (A') (A") (A') (A") (A') (A") (A")
                 (A') (A') (A') (A') (A") (A') (A') (A') (A") (A')
                 (A') (A') (A") (A") (A') (A") (A') (A") (A') (A')
                 (A') (A") (A") (A') (A") (A") (A") (A') (A') (A')
                 (A') (A') (A') (A') (A') (A') (A') (A') (A") (A')
                 (A') (A") (A") (A") (A") (A') (A") (A') (A') (A')
                 (A') (A') (A') (A') (A') (A') (A') (A') (A') (A')
                 (A') (A') (A') (A') (A') (A') (A') (A') (A') (A")
                 (A") (A") (A") (A') (A') (A') (A') (A') (A') (A')
                 (A') (A') (A') (A') (A')
 The electronic state is 2-A'.
 Alpha  occ. eigenvalues -- -102.70492-102.70458-102.70303-102.70111 -10.65411
 Alpha  occ. eigenvalues --  -10.65001 -10.64806 -10.64581 -10.61108 -10.59696
 Alpha  occ. eigenvalues --   -9.84830  -9.84790  -9.84647  -9.84462  -7.57370
 Alpha  occ. eigenvalues --   -7.57355  -7.57182  -7.56991  -7.56666  -7.56625
 Alpha  occ. eigenvalues --   -7.56603  -7.56594  -7.56483  -7.56450  -7.56281
 Alpha  occ. eigenvalues --   -7.56256  -1.07437  -1.03094  -1.00693  -0.97609
 Alpha  occ. eigenvalues --   -0.95084  -0.85270  -0.83396  -0.72272  -0.70265
 Alpha  occ. eigenvalues --   -0.61795  -0.60855  -0.56278  -0.54349  -0.54058
 Alpha  occ. eigenvalues --   -0.51886  -0.49836  -0.47908  -0.45556  -0.42558
 Alpha  occ. eigenvalues --   -0.42433  -0.41727  -0.40574  -0.40365  -0.38430
 Alpha  occ. eigenvalues --   -0.34258  -0.32536  -0.31191
 Alpha virt. eigenvalues --   -0.02948  -0.02000  -0.00040   0.00642   0.02266
 Alpha virt. eigenvalues --    0.03529   0.04027   0.04590   0.05034   0.06250
 Alpha virt. eigenvalues --    0.06440   0.07176   0.07898   0.08045   0.08506
 Alpha virt. eigenvalues --    0.09261   0.09808   0.10533   0.10819   0.11281
 Alpha virt. eigenvalues --    0.12052   0.12347   0.12693   0.13662   0.14889
 Alpha virt. eigenvalues --    0.14934   0.15518   0.15931   0.16638   0.16661
 Alpha virt. eigenvalues --    0.17390   0.18048   0.18242   0.19034   0.19711
 Alpha virt. eigenvalues --    0.20148   0.22380   0.22764   0.23104   0.23219
 Alpha virt. eigenvalues --    0.23813   0.25002   0.25637   0.26975   0.27469
 Alpha virt. eigenvalues --    0.28384   0.28834   0.29310   0.31306   0.31626
 Alpha virt. eigenvalues --    0.33132   0.42572   0.43256   0.44066   0.45759
 Alpha virt. eigenvalues --    0.46402   0.46584   0.48756   0.48810   0.49502
 Alpha virt. eigenvalues --    0.49810   0.50984   0.51007   0.52066   0.53685
 Alpha virt. eigenvalues --    0.53845   0.56980   0.58854   0.60702   0.61955
 Alpha virt. eigenvalues --    0.62797   0.63079   0.64466   0.65504   0.66516
 Alpha virt. eigenvalues --    0.68465   0.68851   0.70294   0.73106   0.76642
 Alpha virt. eigenvalues --    0.77688   0.82160   0.84115   0.86187   0.86607
 Alpha virt. eigenvalues --    0.87486   0.87772   0.88599   0.88999   0.89619
 Alpha virt. eigenvalues --    0.90678   0.91548   0.92537   0.92701   0.94096
 Alpha virt. eigenvalues --    0.96038   0.96442   0.96846   0.97960   0.98427
 Alpha virt. eigenvalues --    0.99716   1.00926   1.01254   1.02879   1.05965
 Alpha virt. eigenvalues --    1.08106   1.09348   1.13849   1.16599   1.22475
 Alpha virt. eigenvalues --    1.25765   1.26419   1.28348   1.28377   1.31552
 Alpha virt. eigenvalues --    1.32346   1.33822   1.35133   1.36383   1.40780
 Alpha virt. eigenvalues --    1.45102   1.49530   1.52171   1.60964   1.64075
 Alpha virt. eigenvalues --    1.70038   1.74661   1.78388   1.80430   1.84309
 Alpha virt. eigenvalues --    1.85524   1.86266   1.86657   1.92879   1.92951
 Alpha virt. eigenvalues --    2.00704   2.07684   2.10619   2.18459   2.23232
 Alpha virt. eigenvalues --    2.25714   2.27335   2.28757   2.28766   2.30436
 Alpha virt. eigenvalues --    2.34169   2.34279   2.36184   2.42354   2.43378
 Alpha virt. eigenvalues --    2.44998   2.49541   2.50646   2.55714   2.58642
 Alpha virt. eigenvalues --    2.62918   2.63990   2.65543   2.67453   2.72846
 Alpha virt. eigenvalues --    2.78405   2.81136   2.89779   2.91436   2.92215
 Alpha virt. eigenvalues --    3.09004   3.11600   3.13186   3.20375   3.24948
 Alpha virt. eigenvalues --    3.28796   3.38671   3.52520   3.69840   3.73753
 Alpha virt. eigenvalues --    3.94605   4.04835   4.74488   9.90312   9.98267
 Alpha virt. eigenvalues --    9.99891  10.01427  23.36363  23.82688  23.86689
 Alpha virt. eigenvalues --   23.96241  24.01263  24.19392  25.86224  25.89990
 Alpha virt. eigenvalues --   25.93581  26.00035  26.15812  26.19589  26.24857
 Alpha virt. eigenvalues --   26.30282  26.47836  26.67993  26.82320  26.97256
 Alpha virt. eigenvalues --  215.99621 216.08615 216.10624 216.12507
  Beta  occ. eigenvalues -- -102.70468-102.70426-102.70286-102.70118 -10.65336
  Beta  occ. eigenvalues --  -10.64908 -10.64830 -10.64620 -10.60124 -10.59725
  Beta  occ. eigenvalues --   -9.84821  -9.84776  -9.84641  -9.84464  -7.57329
  Beta  occ. eigenvalues --   -7.57277  -7.57150  -7.56990  -7.56650  -7.56609
  Beta  occ. eigenvalues --   -7.56606  -7.56564  -7.56470  -7.56440  -7.56302
  Beta  occ. eigenvalues --   -7.56258  -1.07151  -1.02919  -1.00379  -0.97532
  Beta  occ. eigenvalues --   -0.94169  -0.84753  -0.82391  -0.71707  -0.68960
  Beta  occ. eigenvalues --   -0.61082  -0.60077  -0.55696  -0.54043  -0.53797
  Beta  occ. eigenvalues --   -0.51239  -0.49347  -0.47848  -0.45250  -0.42443
  Beta  occ. eigenvalues --   -0.41713  -0.41643  -0.40311  -0.39668  -0.38369
  Beta  occ. eigenvalues --   -0.32130  -0.30815
  Beta virt. eigenvalues --   -0.08871  -0.02993  -0.00867   0.00035   0.00603
  Beta virt. eigenvalues --    0.02355   0.03642   0.04053   0.04652   0.05029
  Beta virt. eigenvalues --    0.05885   0.06732   0.07135   0.07771   0.08210
  Beta virt. eigenvalues --    0.08430   0.09337   0.09668   0.10623   0.10776
  Beta virt. eigenvalues --    0.11018   0.11954   0.12233   0.12738   0.13653
  Beta virt. eigenvalues --    0.14642   0.14932   0.16026   0.16095   0.16727
  Beta virt. eigenvalues --    0.17107   0.17187   0.18083   0.18253   0.18909
  Beta virt. eigenvalues --    0.19736   0.19967   0.22388   0.22808   0.22825
  Beta virt. eigenvalues --    0.23191   0.23691   0.25068   0.25726   0.27191
  Beta virt. eigenvalues --    0.27419   0.28092   0.28656   0.29982   0.31613
  Beta virt. eigenvalues --    0.31625   0.33782   0.42486   0.43646   0.44076
  Beta virt. eigenvalues --    0.45092   0.46428   0.46735   0.48776   0.48857
  Beta virt. eigenvalues --    0.49501   0.49871   0.50988   0.51050   0.52217
  Beta virt. eigenvalues --    0.53865   0.53890   0.54302   0.59015   0.60411
  Beta virt. eigenvalues --    0.60743   0.62828   0.63098   0.64615   0.65683
  Beta virt. eigenvalues --    0.67138   0.68707   0.69291   0.70169   0.73298
  Beta virt. eigenvalues --    0.76790   0.77617   0.82145   0.84172   0.86413
  Beta virt. eigenvalues --    0.86636   0.87532   0.87621   0.88609   0.89078
  Beta virt. eigenvalues --    0.89714   0.90707   0.91553   0.92560   0.92620
  Beta virt. eigenvalues --    0.94435   0.95293   0.96361   0.97101   0.97903
  Beta virt. eigenvalues --    0.98278   0.99870   1.00902   1.01834   1.02760
  Beta virt. eigenvalues --    1.05749   1.08765   1.09340   1.15382   1.16501
  Beta virt. eigenvalues --    1.22497   1.25285   1.26268   1.28441   1.29499
  Beta virt. eigenvalues --    1.31532   1.32612   1.33731   1.35519   1.36719
  Beta virt. eigenvalues --    1.40613   1.46519   1.50217   1.53498   1.61417
  Beta virt. eigenvalues --    1.65006   1.70210   1.75314   1.78908   1.80962
  Beta virt. eigenvalues --    1.84792   1.86260   1.86270   1.86666   1.93186
  Beta virt. eigenvalues --    1.93614   2.01328   2.08077   2.10993   2.18812
  Beta virt. eigenvalues --    2.23483   2.25724   2.27390   2.28854   2.29034
  Beta virt. eigenvalues --    2.30626   2.34196   2.34536   2.36378   2.42482
  Beta virt. eigenvalues --    2.43747   2.45295   2.50310   2.50714   2.55936
  Beta virt. eigenvalues --    2.58989   2.63248   2.64230   2.65651   2.67767
  Beta virt. eigenvalues --    2.72741   2.78900   2.81177   2.89978   2.91247
  Beta virt. eigenvalues --    2.94615   3.09081   3.11945   3.14478   3.20431
  Beta virt. eigenvalues --    3.25359   3.28983   3.39419   3.52890   3.69965
  Beta virt. eigenvalues --    3.73969   3.94875   4.05243   4.74695   9.90319
  Beta virt. eigenvalues --    9.98274   9.99897  10.01429  23.36476  23.82831
  Beta virt. eigenvalues --   23.86753  23.96262  24.01394  24.20081  25.86232
  Beta virt. eigenvalues --   25.90005  25.93595  26.00040  26.15859  26.19629
  Beta virt. eigenvalues --   26.24892  26.30316  26.47914  26.68111  26.82425
  Beta virt. eigenvalues --   26.97330 215.99644 216.08650 216.10657 216.12520
          Condensed to atoms (all electrons):
               1          2          3          4          5          6
     1  C   11.725971  -0.767283  -2.066744   0.933353  -1.719671  -1.036992
     2  C   -0.767283  11.881078   0.019122  -1.596985   0.313638  -3.215670
     3  C   -2.066744   0.019122  13.829386  -1.393911  -4.613257   0.769935
     4  C    0.933353  -1.596985  -1.393911  11.561334  -1.205223  -1.065537
     5  C   -1.719671   0.313638  -4.613257  -1.205223  12.656047   1.119298
     6  C   -1.036992  -3.215670   0.769935  -1.065537   1.119298  10.042530
     7  Cl  -0.192614   0.411768  -0.292967   0.041327  -0.294866  -0.369040
     8  Cl  -0.351110  -0.848224   0.417518  -0.273314   0.351491   0.042211
     9  Cl  -0.231774   0.242524  -0.893871  -0.085293   0.004541   0.270007
    10  Cl   0.077363  -0.151840   0.457131  -0.582969  -0.174858  -0.241328
    11  H   -0.072942   0.006527  -0.070183  -0.137001   0.541132   0.044870
               7          8          9         10         11
     1  C   -0.192614  -0.351110  -0.231774   0.077363  -0.072942
     2  C    0.411768  -0.848224   0.242524  -0.151840   0.006527
     3  C   -0.292967   0.417518  -0.893871   0.457131  -0.070183
     4  C    0.041327  -0.273314  -0.085293  -0.582969  -0.137001
     5  C   -0.294866   0.351491   0.004541  -0.174858   0.541132
     6  C   -0.369040   0.042211   0.270007  -0.241328   0.044870
     7  Cl  17.465315  -0.263573   0.013701  -0.010564  -0.009050
     8  Cl  -0.263573  17.650471  -0.294816   0.011720   0.005031
     9  Cl   0.013701  -0.294816  17.672706  -0.270896  -0.008803
    10  Cl  -0.010564   0.011720  -0.270896  17.444071   0.006950
    11  H   -0.009050   0.005031  -0.008803   0.006950   0.475114
          Atomic-Atomic Spin Densities.
               1          2          3          4          5          6
     1  C   -0.161413  -0.084815  -0.061770   0.108996   0.196775  -0.055149
     2  C   -0.084815   0.425001  -0.204077   0.049474   0.155200  -0.249566
     3  C   -0.061770  -0.204077   0.775706  -0.290220  -0.550597   0.300214
     4  C    0.108996   0.049474  -0.290220   0.350294   0.073517  -0.183140
     5  C    0.196775   0.155200  -0.550597   0.073517   0.250898  -0.128768
     6  C   -0.055149  -0.249566   0.300214  -0.183140  -0.128768   1.204756
     7  Cl  -0.021762   0.064829   0.059218  -0.021715  -0.056921  -0.040608
     8  Cl   0.076368  -0.093488  -0.096885   0.050671   0.048880   0.001174
     9  Cl  -0.015698   0.017160   0.076653  -0.038808  -0.031924  -0.001085
    10  Cl   0.007152   0.019681  -0.093855   0.000613   0.080642  -0.030682
    11  H   -0.004184  -0.004529   0.006911  -0.036483   0.001867   0.023781
               7          8          9         10         11
     1  C   -0.021762   0.076368  -0.015698   0.007152  -0.004184
     2  C    0.064829  -0.093488   0.017160   0.019681  -0.004529
     3  C    0.059218  -0.096885   0.076653  -0.093855   0.006911
     4  C   -0.021715   0.050671  -0.038808   0.000613  -0.036483
     5  C   -0.056921   0.048880  -0.031924   0.080642   0.001867
     6  C   -0.040608   0.001174  -0.001085  -0.030682   0.023781
     7  Cl   0.060879  -0.039396   0.004157  -0.001291  -0.000696
     8  Cl  -0.039396   0.072041  -0.007776   0.002479  -0.000063
     9  Cl   0.004157  -0.007776  -0.007302   0.000273  -0.000400
    10  Cl  -0.001291   0.002479   0.000273   0.031454  -0.000650
    11  H   -0.000696  -0.000063  -0.000400  -0.000650   0.038325
 Mulliken charges and spin densities:
               1          2
     1  C   -0.297558  -0.015501
     2  C   -0.294655   0.094870
     3  C   -0.162159  -0.078703
     4  C   -0.195782   0.063200
     5  C   -0.978271   0.039568
     6  C   -0.360283   0.840925
     7  Cl   0.500563   0.006693
     8  Cl   0.552595   0.014004
     9  Cl   0.581973  -0.004751
    10  Cl   0.435221   0.015816
    11  H    0.218357   0.023877
 Sum of Mulliken charges =  -0.00000   1.00000
 Mulliken charges and spin densities with hydrogens summed into heavy atoms:
               1          2
     1  C   -0.297558  -0.015501
     2  C   -0.294655   0.094870
     3  C   -0.162159  -0.078703
     4  C   -0.195782   0.063200
     5  C   -0.759914   0.063445
     6  C   -0.360283   0.840925
     7  Cl   0.500563   0.006693
     8  Cl   0.552595   0.014004
     9  Cl   0.581973  -0.004751
    10  Cl   0.435221   0.015816
 Electronic spatial extent (au):  <R**2>=           2538.1289
 Charge=             -0.0000 electrons
 Dipole moment (field-independent basis, Debye):
    X=              1.1470    Y=              0.2699    Z=             -0.0000  Tot=              1.1783
 Quadrupole moment (field-independent basis, Debye-Ang):
   XX=            -79.2719   YY=            -85.4051   ZZ=            -85.7573
   XY=              0.7531   XZ=             -0.0000   YZ=             -0.0000
 Traceless Quadrupole moment (field-independent basis, Debye-Ang):
   XX=              4.2062   YY=             -1.9270   ZZ=             -2.2792
   XY=              0.7531   XZ=             -0.0000   YZ=             -0.0000
 Octapole moment (field-independent basis, Debye-Ang**2):
  XXX=             -1.4965  YYY=            -11.6261  ZZZ=              0.0000  XYY=             -8.6339
  XXY=             -0.8900  XXZ=              0.0000  XZZ=             -5.6830  YZZ=             -2.9089
  YYZ=              0.0000  XYZ=             -0.0000
 Hexadecapole moment (field-independent basis, Debye-Ang**3):
 XXXX=          -1233.7884 YYYY=          -1798.1824 ZZZZ=            -98.5647 XXXY=            222.7145
 XXXZ=             -0.0000 YYYX=            195.5406 YYYZ=              0.0000 ZZZX=             -0.0000
 ZZZY=              0.0000 XXYY=           -517.6335 XXZZ=           -247.2052 YYZZ=           -334.6680
 XXYZ=              0.0000 YYXZ=             -0.0000 ZZXY=             73.7583
 N-N= 8.385576906604D+02 E-N=-6.583937537388D+03  KE= 2.065294791582D+03
 Symmetry A'   KE= 1.875015494765D+03
 Symmetry A"   KE= 1.902792968166D+02
 Symmetry A'   SP= 1.000000000000D+00
 Symmetry A"   SP= 1.561969057623D-14
                          Isotropic Fermi Contact Couplings
        Atom                 a.u.       MegaHertz       Gauss      10(-4) cm-1
     1  C(13)             -0.01220     -13.71923      -4.89536      -4.57624
     2  C(13)              0.05231      58.80316      20.98243      19.61462
     3  C(13)             -0.01070     -12.02854      -4.29208      -4.01229
     4  C(13)              0.07253      81.53402      29.09337      27.19682
     5  C(13)              0.00539       6.06267       2.16331       2.02229
     6  C(13)              0.43958     494.16702     176.33108     164.83637
     7  Cl(35)             0.01832       8.03108       2.86569       2.67888
     8  Cl(35)             0.00549       2.40679       0.85880       0.80282
     9  Cl(35)             0.00049       0.21602       0.07708       0.07206
    10  Cl(35)             0.00165       0.72491       0.25867       0.24180
    11  H(1)               0.01282      57.30684      20.44851      19.11550
 --------------------------------------------------------
       Center         ----  Spin Dipole Couplings  ----
                      3XX-RR        3YY-RR        3ZZ-RR
 --------------------------------------------------------
     1   Atom        0.120651     -0.017817     -0.102834
     2   Atom       -0.014989      0.010304      0.004685
     3   Atom        0.024981      0.032473     -0.057454
     4   Atom       -0.015401      0.015686     -0.000285
     5   Atom        0.012779      0.086162     -0.098941
     6   Atom       -0.170040      0.563331     -0.393291
     7   Atom        0.114817      0.033257     -0.148074
     8   Atom        0.063939     -0.028576     -0.035363
     9   Atom        0.023453      0.027235     -0.050688
    10   Atom       -0.058996      0.078306     -0.019310
    11   Atom        0.007271      0.004452     -0.011724
 --------------------------------------------------------
                        XY            XZ            YZ
 --------------------------------------------------------
     1   Atom       -0.011199      0.000000     -0.000000
     2   Atom        0.023115      0.000000      0.000000
     3   Atom        0.006967      0.000000      0.000000
     4   Atom        0.034718      0.000000      0.000000
     5   Atom       -0.034425      0.000000     -0.000000
     6   Atom        0.678144      0.000000      0.000000
     7   Atom       -0.146057      0.000000     -0.000000
     8   Atom        0.082703      0.000000     -0.000000
     9   Atom        0.005819      0.000000      0.000000
    10   Atom       -0.010887     -0.000000     -0.000000
    11   Atom       -0.016109      0.000000     -0.000000
 --------------------------------------------------------


 ---------------------------------------------------------------------------------
              Anisotropic Spin Dipole Couplings in Principal Axis System
 ---------------------------------------------------------------------------------

       Atom             a.u.   MegaHertz   Gauss  10(-4) cm-1        Axes

              Baa    -0.1028   -13.799    -4.924    -4.603  0.0000  0.0000  1.0000
     1 C(13)  Bbb    -0.0187    -2.512    -0.896    -0.838  0.0801  0.9968  0.0000
              Bcc     0.1216    16.311     5.820     5.441  0.9968 -0.0801  0.0000
 
              Baa    -0.0287    -3.850    -1.374    -1.284  0.8602 -0.5099 -0.0000
     2 C(13)  Bbb     0.0047     0.629     0.224     0.210  0.0000  0.0000  1.0000
              Bcc     0.0240     3.221     1.149     1.075  0.5099  0.8602 -0.0000
 
              Baa    -0.0575    -7.710    -2.751    -2.572  0.0000  0.0000  1.0000
     3 C(13)  Bbb     0.0208     2.793     0.997     0.932  0.8584 -0.5130 -0.0000
              Bcc     0.0366     4.916     1.754     1.640  0.5130  0.8584 -0.0000
 
              Baa    -0.0379    -5.085    -1.815    -1.696  0.8392 -0.5438 -0.0000
     4 C(13)  Bbb    -0.0003    -0.038    -0.014    -0.013  0.0000  0.0000  1.0000
              Bcc     0.0382     5.124     1.828     1.709  0.5438  0.8392 -0.0000
 
              Baa    -0.0989   -13.277    -4.738    -4.429  0.0000  0.0000  1.0000
     5 C(13)  Bbb    -0.0008    -0.113    -0.040    -0.038  0.9299  0.3679  0.0000
              Bcc     0.0998    13.390     4.778     4.466 -0.3679  0.9299 -0.0000
 
              Baa    -0.5743   -77.064   -27.498   -25.706  0.8590 -0.5120  0.0000
     6 C(13)  Bbb    -0.3933   -52.776   -18.832   -17.604  0.0000  0.0000  1.0000
              Bcc     0.9676   129.840    46.330    43.310  0.5120  0.8590 -0.0000
 
              Baa    -0.1481    -7.750    -2.765    -2.585  0.0000  0.0000  1.0000
     7 Cl(35) Bbb    -0.0776    -4.062    -1.449    -1.355  0.6046  0.7965 -0.0000
              Bcc     0.2257    11.812     4.215     3.940  0.7965 -0.6046  0.0000
 
              Baa    -0.0771    -4.034    -1.439    -1.346 -0.5059  0.8626 -0.0000
     8 Cl(35) Bbb    -0.0354    -1.851    -0.660    -0.617  0.0000  0.0000  1.0000
              Bcc     0.1124     5.885     2.100     1.963  0.8626  0.5059 -0.0000
 
              Baa    -0.0507    -2.653    -0.947    -0.885  0.0000  0.0000  1.0000
     9 Cl(35) Bbb     0.0192     1.006     0.359     0.336  0.8090 -0.5878 -0.0000
              Bcc     0.0315     1.647     0.588     0.549  0.5878  0.8090 -0.0000
 
              Baa    -0.0599    -3.133    -1.118    -1.045  0.9969  0.0786 -0.0000
    10 Cl(35) Bbb    -0.0193    -1.011    -0.361    -0.337  0.0000  0.0000  1.0000
              Bcc     0.0792     4.143     1.478     1.382 -0.0786  0.9969 -0.0000
 
              Baa    -0.0117    -6.255    -2.232    -2.087  0.0000  0.0000  1.0000
    11 H(1)   Bbb    -0.0103    -5.500    -1.963    -1.835  0.6756  0.7373  0.0000
              Bcc     0.0220    11.755     4.195     3.921  0.7373 -0.6756  0.0000
 

 ---------------------------------------------------------------------------------

 Calling FoFJK, ICntrl=      2127 FMM=F ISym2X=1 I1Cent= 0 IOpClX= 1 NMat=1 NMatS=1 NMatT=0.
 ***** Axes restored to original set *****
 -------------------------------------------------------------------
 Center     Atomic                   Forces (Hartrees/Bohr)
 Number     Number              X              Y              Z
 -------------------------------------------------------------------
      1        6           0.041521266   -0.013056235    0.000000000
      2        6          -0.004832601   -0.029519109    0.000000000
      3        6          -0.019306423   -0.015051528    0.000000000
      4        6          -0.030342806    0.010801148   -0.000000000
      5        6           0.006888045    0.008353522   -0.000000000
      6        6          -0.008155364   -0.001366192   -0.000000000
      7       17          -0.021902650    0.010095625   -0.000000000
      8       17          -0.000473078    0.019158547   -0.000000000
      9       17           0.015936806    0.009750029   -0.000000000
     10       17           0.018819396   -0.009975504    0.000000000
     11        1           0.001847410    0.010809696   -0.000000000
 -------------------------------------------------------------------
 Cartesian Forces:  Max     0.041521266 RMS     0.014016615

 GradGradGradGradGradGradGradGradGradGradGradGradGradGradGradGradGradGrad
 Berny optimization.
 FormGI is forming the generalized inverse of G from B-inverse, IUseBI=4.
 Internal  Forces:  Max     0.024115467 RMS     0.007599106
 Search for a local minimum.
 Step number   1 out of a maximum of   57
 All quantities printed in internal units (Hartrees-Bohrs-Radians)
 Mixed Optimization -- RFO/linear search
 Second derivative matrix not updated -- first step.
 ITU=  0
     Eigenvalues ---    0.01844   0.01869   0.01878   0.01891   0.01935
     Eigenvalues ---    0.02012   0.02115   0.02381   0.16000   0.23382
     Eigenvalues ---    0.25000   0.25000   0.25000   0.25000   0.25000
     Eigenvalues ---    0.25000   0.33921   0.37066   0.37445   0.37734
     Eigenvalues ---    0.38689   0.40050   0.41117   0.42772   0.43180
     Eigenvalues ---    0.48612   0.50775
 RFO step:  Lambda=-7.22074223D-03 EMin= 1.84368211D-02
 Linear search not attempted -- first point.
 Iteration  1 RMS(Cart)=  0.01806944 RMS(Int)=  0.00016394
 Iteration  2 RMS(Cart)=  0.00021196 RMS(Int)=  0.00003522
 Iteration  3 RMS(Cart)=  0.00000004 RMS(Int)=  0.00003522
 ClnCor:  largest displacement from symmetrization is 7.21D-10 for atom     9.
 Variable       Old X    -DE/DX   Delta X   Delta X   Delta X     New X
                                 (Linear)    (Quad)   (Total)
    R1        2.68429  -0.01192   0.00000  -0.02730  -0.02730   2.65699
    R2        2.59943  -0.00820   0.00000  -0.01604  -0.01599   2.58344
    R3        3.17074   0.02412   0.00000   0.06119   0.06119   3.23193
    R4        2.67642  -0.00818   0.00000  -0.01855  -0.01860   2.65782
    R5        3.18454   0.01916   0.00000   0.04984   0.04984   3.23437
    R6        2.67493  -0.01140   0.00000  -0.02620  -0.02625   2.64868
    R7        3.19447   0.01868   0.00000   0.04944   0.04944   3.24392
    R8        2.67274  -0.01309   0.00000  -0.03008  -0.03008   2.64266
    R9        3.18881   0.02129   0.00000   0.05579   0.05579   3.24460
   R10        2.58185  -0.00486   0.00000  -0.00937  -0.00931   2.57254
   R11        2.07464  -0.01082   0.00000  -0.03122  -0.03122   2.04342
    A1        2.00569   0.00534   0.00000   0.02128   0.02132   2.02701
    A2        2.14669  -0.00215   0.00000  -0.00860  -0.00862   2.13807
    A3        2.13080  -0.00319   0.00000  -0.01268  -0.01270   2.11810
    A4        2.08492   0.00116   0.00000   0.00491   0.00485   2.08977
    A5        2.09120  -0.00045   0.00000  -0.00195  -0.00192   2.08928
    A6        2.10706  -0.00071   0.00000  -0.00295  -0.00293   2.10413
    A7        2.11441  -0.00287   0.00000  -0.01175  -0.01185   2.10256
    A8        2.08371   0.00148   0.00000   0.00605   0.00610   2.08981
    A9        2.08506   0.00139   0.00000   0.00570   0.00575   2.09082
   A10        2.09414   0.00069   0.00000   0.00122   0.00116   2.09530
   A11        2.11518  -0.00105   0.00000  -0.00335  -0.00332   2.11186
   A12        2.07387   0.00036   0.00000   0.00213   0.00216   2.07602
   A13        2.00496   0.00644   0.00000   0.02677   0.02681   2.03177
   A14        2.13318  -0.00509   0.00000  -0.02460  -0.02462   2.10856
   A15        2.14505  -0.00134   0.00000  -0.00217  -0.00219   2.14286
   A16        2.26224  -0.01076   0.00000  -0.04242  -0.04229   2.21995
    D1        0.00000   0.00000   0.00000   0.00000  -0.00000   0.00000
    D2        3.14159   0.00000   0.00000   0.00000   0.00000   3.14159
    D3        3.14159  -0.00000   0.00000  -0.00000   0.00000   3.14159
    D4       -0.00000   0.00000   0.00000   0.00000   0.00000   0.00000
    D5       -0.00000  -0.00000   0.00000  -0.00000   0.00000   0.00000
    D6        3.14159   0.00000   0.00000   0.00000   0.00000   3.14159
    D7       -0.00000  -0.00000   0.00000   0.00000   0.00000   0.00000
    D8        3.14159   0.00000   0.00000   0.00000   0.00000   3.14159
    D9        3.14159  -0.00000   0.00000  -0.00000   0.00000   3.14159
   D10       -0.00000  -0.00000   0.00000  -0.00000   0.00000   0.00000
   D11        0.00000  -0.00000   0.00000  -0.00000  -0.00000   0.00000
   D12        3.14159   0.00000   0.00000   0.00000   0.00000   3.14159
   D13        3.14159  -0.00000   0.00000  -0.00000   0.00000   3.14159
   D14       -0.00000  -0.00000   0.00000  -0.00000   0.00000   0.00000
   D15       -0.00000   0.00000   0.00000   0.00000   0.00000   0.00000
   D16        3.14159   0.00000   0.00000   0.00000   0.00000   3.14159
   D17        3.14159   0.00000   0.00000  -0.00000   0.00000   3.14159
   D18       -0.00000   0.00000   0.00000   0.00000   0.00000   0.00000
   D19        0.00000  -0.00000   0.00000   0.00000  -0.00000   0.00000
   D20        3.14159  -0.00000   0.00000  -0.00000   0.00000   3.14159
         Item               Value     Threshold  Converged?
 Maximum Force            0.024115     0.000450     NO 
 RMS     Force            0.007599     0.000300     NO 
 Maximum Displacement     0.064979     0.001800     NO 
 RMS     Displacement     0.018086     0.001200     NO 
 Predicted change in Energy=-3.682045D-03
 GradGradGradGradGradGradGradGradGradGradGradGradGradGradGradGradGradGrad

                          Input orientation:                          
 ---------------------------------------------------------------------
 Center     Atomic      Atomic             Coordinates (Angstroms)
 Number     Number       Type             X           Y           Z
 ---------------------------------------------------------------------
      1          6           0       -3.208463    0.152217   -0.000000
      2          6           0       -2.009773    0.887085   -0.000000
      3          6           0       -0.776743    0.210506    0.000000
      4          6           0       -0.734826   -1.190489    0.000000
      5          6           0       -1.923786   -1.926692    0.000000
      6          6           0       -3.080488   -1.208877    0.000000
      7         17           0       -4.745808    0.901600   -0.000000
      8         17           0       -2.063650    2.597794   -0.000000
      9         17           0        0.686768    1.107653    0.000000
     10         17           0        0.762679   -2.030404    0.000000
     11          1           0       -1.905780   -3.007872    0.000000
 ---------------------------------------------------------------------
                    Distance matrix (angstroms):
                    1          2          3          4          5
     1  C    0.000000
     2  C    1.406019   0.000000
     3  C    2.432419   1.406458   0.000000
     4  C    2.814559   2.437582   1.401622   0.000000
     5  C    2.443820   2.815090   2.425556   1.398435   0.000000
     6  C    1.367098   2.353612   2.705899   2.345734   1.361329
     7  Cl   1.710264   2.736074   4.028783   4.523805   3.995377
     8  Cl   2.700267   1.711558   2.712061   4.014582   4.526647
     9  Cl   4.010696   2.705547   1.716606   2.702293   4.002779
    10  Cl   4.531424   4.024703   2.718730   1.716968   2.688466
    11  H    3.418062   3.896345   3.410672   2.161947   1.081330
                    6          7          8          9         10
     6  C    0.000000
     7  Cl   2.688383   0.000000
     8  Cl   3.940141   3.173491   0.000000
     9  Cl   4.422503   5.436482   3.128150   0.000000
    10  Cl   3.929992   6.240198   5.422947   3.138975   0.000000
    11  H    2.148563   4.832156   5.607889   4.864037   2.841851
                   11
    11  H    0.000000
 Stoichiometry    C6HCl4(2)
 Framework group  CS[SG(C6HCl4)]
 Deg. of freedom    19
 Full point group                 CS      NOp   2
 Largest Abelian subgroup         CS      NOp   2
 Largest concise Abelian subgroup C1      NOp   1
                         Standard orientation:                         
 ---------------------------------------------------------------------
 Center     Atomic      Atomic             Coordinates (Angstroms)
 Number     Number       Type             X           Y           Z
 ---------------------------------------------------------------------
      1          6           0        0.065251    1.651803   -0.000000
      2          6           0       -0.673046    0.455222   -0.000000
      3          6           0        0.000000   -0.779741    0.000000
      4          6           0        1.400869   -0.825669    0.000000
      5          6           0        2.140474    0.361178    0.000000
      6          6           0        1.425974    1.519931    0.000000
      7         17           0       -0.679726    3.191287   -0.000000
      8         17           0       -2.383594    0.513997   -0.000000
      9         17           0       -0.901334   -2.240677   -0.000000
     10         17           0        2.236492   -2.325573    0.000000
     11          1           0        3.221598    0.340076    0.000000
 ---------------------------------------------------------------------
 Rotational constants (GHZ):           1.1943725           0.5469789           0.3751664
 Standard basis: 6-311++G(d,p) (5D, 7F)
 There are   200 symmetry adapted cartesian basis functions of A'  symmetry.
 There are    69 symmetry adapted cartesian basis functions of A"  symmetry.
 There are   190 symmetry adapted basis functions of A'  symmetry.
 There are    69 symmetry adapted basis functions of A"  symmetry.
   259 basis functions,   437 primitive gaussians,   269 cartesian basis functions
    53 alpha electrons       52 beta electrons
       nuclear repulsion energy       835.6420739468 Hartrees.
 NAtoms=   11 NActive=   11 NUniq=   11 SFac= 1.00D+00 NAtFMM=   60 NAOKFM=F Big=F
 Integral buffers will be    131072 words long.
 Raffenetti 2 integral format.
 Two-electron integral symmetry is turned on.
 One-electron integrals computed using PRISM.
 NBasis=   259 RedAO= T EigKep=  3.41D-06  NBF=   190    69
 NBsUse=   257 1.00D-06 EigRej=  8.05D-07 NBFU=   188    69
 Initial guess from the checkpoint file:  "frequency_chks/_2345ClBzNeutralRadical_Freq.chk"
 B after Tr=     0.000000   -0.000000    0.000000
         Rot=    0.999987    0.000000    0.000000    0.005116 Ang=   0.59 deg.
 Initial guess orbital symmetries:
 Alpha Orbitals:
       Occupied  (A') (A') (A') (A') (A') (A') (A') (A') (A') (A')
                 (A') (A') (A') (A') (A') (A') (A') (A') (A") (A')
                 (A") (A') (A") (A') (A") (A') (A') (A') (A') (A')
                 (A') (A') (A') (A') (A') (A') (A') (A') (A') (A")
                 (A') (A') (A") (A") (A') (A") (A') (A') (A") (A')
                 (A') (A") (A")
       Virtual   (A") (A") (A') (A') (A') (A') (A') (A') (A") (A')
                 (A') (A") (A") (A') (A') (A') (A") (A') (A") (A')
                 (A") (A') (A') (A') (A') (A") (A") (A') (A') (A")
                 (A') (A') (A") (A') (A') (A') (A') (A") (A') (A')
                 (A') (A') (A') (A') (A') (A') (A') (A') (A') (A')
                 (A') (A') (A') (A") (A') (A") (A') (A') (A") (A')
                 (A') (A") (A') (A') (A") (A') (A') (A") (A") (A')
                 (A") (A") (A') (A') (A') (A') (A") (A') (A') (A")
                 (A') (A') (A") (A') (A') (A") (A') (A') (A') (A")
                 (A") (A") (A") (A') (A') (A') (A') (A') (A') (A')
                 (A') (A") (A") (A') (A') (A') (A') (A") (A') (A')
                 (A') (A') (A') (A") (A') (A") (A') (A") (A") (A')
                 (A') (A') (A') (A") (A') (A') (A') (A") (A') (A')
                 (A') (A") (A") (A") (A') (A') (A") (A') (A') (A')
                 (A") (A") (A') (A") (A") (A") (A') (A') (A') (A')
                 (A') (A') (A') (A') (A') (A') (A') (A") (A') (A')
                 (A") (A") (A") (A") (A') (A") (A') (A') (A') (A')
                 (A') (A') (A') (A') (A') (A') (A') (A') (A') (A')
                 (A') (A') (A') (A') (A') (A') (A') (A') (A") (A")
                 (A") (A") (A') (A') (A') (A') (A') (A') (A') (A')
                 (A') (A') (A') (A')
 Beta  Orbitals:
       Occupied  (A') (A') (A') (A') (A') (A') (A') (A') (A') (A')
                 (A') (A') (A') (A') (A') (A') (A') (A') (A") (A")
                 (A') (A') (A") (A') (A") (A') (A') (A') (A') (A')
                 (A') (A') (A') (A') (A') (A') (A') (A') (A') (A")
                 (A') (A') (A") (A") (A") (A') (A') (A') (A") (A')
                 (A") (A")
       Virtual   (A') (A") (A") (A') (A') (A') (A') (A') (A') (A")
                 (A') (A') (A") (A") (A') (A') (A') (A") (A') (A")
                 (A') (A") (A') (A') (A') (A") (A') (A") (A') (A')
                 (A") (A') (A') (A") (A') (A') (A') (A') (A") (A')
                 (A') (A') (A') (A') (A') (A') (A') (A') (A') (A')
                 (A') (A') (A') (A') (A") (A') (A") (A') (A') (A")
                 (A') (A') (A") (A') (A') (A') (A") (A') (A") (A')
                 (A") (A") (A") (A') (A') (A') (A") (A') (A') (A')
                 (A") (A') (A') (A") (A') (A') (A") (A') (A') (A')
                 (A") (A") (A") (A') (A") (A') (A') (A') (A') (A')
                 (A') (A') (A") (A") (A') (A') (A') (A') (A") (A')
                 (A') (A') (A') (A') (A") (A') (A") (A') (A") (A")
                 (A') (A') (A') (A') (A") (A') (A') (A') (A") (A')
                 (A') (A') (A") (A") (A') (A") (A') (A") (A') (A')
                 (A') (A") (A") (A') (A") (A") (A") (A') (A') (A')
                 (A') (A') (A') (A') (A') (A') (A') (A') (A") (A')
                 (A') (A") (A") (A") (A") (A') (A") (A') (A') (A')
                 (A') (A') (A') (A') (A') (A') (A') (A') (A') (A')
                 (A') (A') (A') (A') (A') (A') (A') (A') (A') (A")
                 (A") (A") (A") (A') (A') (A') (A') (A') (A') (A')
                 (A') (A') (A') (A') (A')
 Initial guess <Sx>= 0.0000 <Sy>= 0.0000 <Sz>= 0.5000 <S**2>= 0.7633 S= 0.5066
 ExpMin= 3.60D-02 ExpMax= 1.06D+05 ExpMxC= 3.62D+03 IAcc=3 IRadAn=         5 AccDes= 0.00D+00
 Harris functional with IExCor= 1009 and IRadAn=       5 diagonalized for initial guess.
 HarFok:  IExCor= 1009 AccDes= 0.00D+00 IRadAn=         5 IDoV= 1 UseB2=F ITyADJ=14
 ICtDFT=  3500011 ScaDFX=  1.000000  1.000000  1.000000  1.000000
 FoFCou: FMM=F IPFlag=           0 FMFlag=      100000 FMFlg1=           0
         NFxFlg=           0 DoJE=T BraDBF=F KetDBF=T FulRan=T
         wScrn=  0.000000 ICntrl=       500 IOpCl=  0 I1Cent=   200000004 NGrid=           0
         NMat0=    1 NMatS0=      1 NMatT0=    0 NMatD0=    1 NMtDS0=    0 NMtDT0=    0
 Petite list used in FoFCou.
 Keep R1 and R2 ints in memory in symmetry-blocked form, NReq=892001928.
 Requested convergence on RMS density matrix=1.00D-08 within 128 cycles.
 Requested convergence on MAX density matrix=1.00D-06.
 Requested convergence on             energy=1.00D-06.
 No special actions if energy rises.
 SCF Done:  E(UM062X) =  -2069.89721722     A.U. after   15 cycles
            NFock= 15  Conv=0.98D-08     -V/T= 2.0022
 <Sx>= 0.0000 <Sy>= 0.0000 <Sz>= 0.5000 <S**2>= 0.7630 S= 0.5065
 <L.S>=  0.00000000000    
 Annihilation of the first spin contaminant:
 S**2 before annihilation     0.7630,   after     0.7501
 Calling FoFJK, ICntrl=      2127 FMM=F ISym2X=1 I1Cent= 0 IOpClX= 1 NMat=1 NMatS=1 NMatT=0.
 ***** Axes restored to original set *****
 -------------------------------------------------------------------
 Center     Atomic                   Forces (Hartrees/Bohr)
 Number     Number              X              Y              Z
 -------------------------------------------------------------------
      1        6           0.013481895   -0.001640353    0.000000000
      2        6          -0.002018242   -0.006753172    0.000000000
      3        6          -0.003101934   -0.002099875    0.000000000
      4        6          -0.007720538    0.003506445   -0.000000000
      5        6           0.004165399    0.001315545    0.000000000
      6        6          -0.006036753   -0.000764094   -0.000000000
      7       17          -0.006901318    0.002684173   -0.000000000
      8       17           0.000196830    0.005223529   -0.000000000
      9       17           0.002960976    0.002198387   -0.000000000
     10       17           0.004412686   -0.002882122    0.000000000
     11        1           0.000560999   -0.000788462    0.000000000
 -------------------------------------------------------------------
 Cartesian Forces:  Max     0.013481895 RMS     0.003895000

 GradGradGradGradGradGradGradGradGradGradGradGradGradGradGradGradGradGrad
 Berny optimization.
 Using GEDIIS/GDIIS optimizer.
 FormGI is forming the generalized inverse of G from B-inverse, IUseBI=4.
 Internal  Forces:  Max     0.007379726 RMS     0.001955389
 Search for a local minimum.
 Step number   2 out of a maximum of   57
 All quantities printed in internal units (Hartrees-Bohrs-Radians)
 Mixed Optimization -- RFO/linear search
 Update second derivatives using D2CorX and points    1    2
 DE= -4.40D-03 DEPred=-3.68D-03 R= 1.19D+00
 TightC=F SS=  1.41D+00  RLast= 1.41D-01 DXNew= 5.0454D-01 4.2276D-01
 Trust test= 1.19D+00 RLast= 1.41D-01 DXMaxT set to 4.23D-01
 ITU=  1  0
 Use linear search instead of GDIIS.
     Eigenvalues ---    0.01844   0.01868   0.01878   0.01891   0.01935
     Eigenvalues ---    0.02012   0.02120   0.02374   0.15939   0.21919
     Eigenvalues ---    0.23961   0.25000   0.25000   0.25000   0.25000
     Eigenvalues ---    0.25098   0.31660   0.34696   0.37230   0.37621
     Eigenvalues ---    0.38301   0.40010   0.41026   0.42731   0.43122
     Eigenvalues ---    0.49476   0.51359
 RFO step:  Lambda=-2.32760760D-04 EMin= 1.84366422D-02
 Quartic linear search produced a step of  0.30122.
 Iteration  1 RMS(Cart)=  0.00650592 RMS(Int)=  0.00003897
 Iteration  2 RMS(Cart)=  0.00005055 RMS(Int)=  0.00001929
 Iteration  3 RMS(Cart)=  0.00000000 RMS(Int)=  0.00001929
 ClnCor:  largest displacement from symmetrization is 2.28D-09 for atom     9.
 Variable       Old X    -DE/DX   Delta X   Delta X   Delta X     New X
                                 (Linear)    (Quad)   (Total)
    R1        2.65699  -0.00291  -0.00822  -0.00176  -0.00998   2.64701
    R2        2.58344   0.00043  -0.00482   0.00565   0.00086   2.58430
    R3        3.23193   0.00738   0.01843   0.00846   0.02689   3.25882
    R4        2.65782  -0.00182  -0.00560  -0.00095  -0.00658   2.65124
    R5        3.23437   0.00521   0.01501   0.00466   0.01968   3.25405
    R6        2.64868  -0.00117  -0.00791   0.00322  -0.00471   2.64397
    R7        3.24392   0.00367   0.01489  -0.00031   0.01458   3.25850
    R8        2.64266  -0.00201  -0.00906   0.00216  -0.00690   2.63575
    R9        3.24460   0.00526   0.01681   0.00336   0.02017   3.26477
   R10        2.57254   0.00227  -0.00281   0.00855   0.00577   2.57831
   R11        2.04342   0.00080  -0.00940   0.01139   0.00198   2.04540
    A1        2.02701   0.00273   0.00642   0.00864   0.01509   2.04210
    A2        2.13807  -0.00038  -0.00260   0.00027  -0.00234   2.13572
    A3        2.11810  -0.00235  -0.00383  -0.00890  -0.01274   2.10536
    A4        2.08977  -0.00007   0.00146  -0.00273  -0.00130   2.08848
    A5        2.08928   0.00062  -0.00058   0.00428   0.00371   2.09299
    A6        2.10413  -0.00055  -0.00088  -0.00154  -0.00241   2.10172
    A7        2.10256  -0.00074  -0.00357  -0.00201  -0.00564   2.09692
    A8        2.08981  -0.00016   0.00184  -0.00179   0.00008   2.08989
    A9        2.09082   0.00090   0.00173   0.00380   0.00556   2.09638
   A10        2.09530   0.00146   0.00035   0.00695   0.00726   2.10256
   A11        2.11186  -0.00015  -0.00100   0.00026  -0.00072   2.11114
   A12        2.07602  -0.00131   0.00065  -0.00720  -0.00654   2.06949
   A13        2.03177   0.00034   0.00808  -0.00416   0.00393   2.03570
   A14        2.10856  -0.00073  -0.00742   0.00050  -0.00693   2.10164
   A15        2.14286   0.00039  -0.00066   0.00366   0.00299   2.14585
   A16        2.21995  -0.00373  -0.01274  -0.00667  -0.01934   2.20061
    D1       -0.00000  -0.00000   0.00000  -0.00000   0.00000   0.00000
    D2        3.14159   0.00000   0.00000  -0.00000   0.00000   3.14159
    D3        3.14159  -0.00000   0.00000   0.00000   0.00000   3.14159
    D4       -0.00000  -0.00000   0.00000   0.00000   0.00000   0.00000
    D5        0.00000   0.00000   0.00000   0.00000  -0.00000   0.00000
    D6        3.14159   0.00000   0.00000  -0.00000   0.00000   3.14159
    D7       -0.00000   0.00000   0.00000  -0.00000   0.00000   0.00000
    D8        3.14159   0.00000   0.00000  -0.00000   0.00000   3.14159
    D9        3.14159  -0.00000   0.00000   0.00000   0.00000   3.14159
   D10        0.00000  -0.00000   0.00000  -0.00000  -0.00000   0.00000
   D11       -0.00000   0.00000   0.00000   0.00000   0.00000   0.00000
   D12        3.14159   0.00000   0.00000   0.00000   0.00000   3.14159
   D13        3.14159   0.00000   0.00000   0.00000   0.00000   3.14159
   D14        0.00000   0.00000   0.00000   0.00000  -0.00000   0.00000
   D15        0.00000  -0.00000   0.00000  -0.00000  -0.00000   0.00000
   D16        3.14159  -0.00000   0.00000  -0.00000   0.00000   3.14159
   D17        3.14159  -0.00000   0.00000   0.00000   0.00000   3.14159
   D18       -0.00000  -0.00000   0.00000  -0.00000   0.00000   0.00000
   D19       -0.00000  -0.00000   0.00000  -0.00000   0.00000   0.00000
   D20        3.14159  -0.00000   0.00000   0.00000   0.00000   3.14159
         Item               Value     Threshold  Converged?
 Maximum Force            0.007380     0.000450     NO 
 RMS     Force            0.001955     0.000300     NO 
 Maximum Displacement     0.017460     0.001800     NO 
 RMS     Displacement     0.006503     0.001200     NO 
 Predicted change in Energy=-3.498793D-04
 GradGradGradGradGradGradGradGradGradGradGradGradGradGradGradGradGradGrad

                          Input orientation:                          
 ---------------------------------------------------------------------
 Center     Atomic      Atomic             Coordinates (Angstroms)
 Number     Number       Type             X           Y           Z
 ---------------------------------------------------------------------
      1          6           0       -3.200857    0.148621   -0.000000
      2          6           0       -2.008678    0.883992   -0.000000
      3          6           0       -0.777730    0.210861    0.000000
      4          6           0       -0.741764   -1.187804    0.000000
      5          6           0       -1.925367   -1.925706    0.000000
      6          6           0       -3.089665   -1.214403    0.000000
      7         17           0       -4.751291    0.903630   -0.000000
      8         17           0       -2.061209    2.605160   -0.000000
      9         17           0        0.691129    1.114044    0.000000
     10         17           0        0.762102   -2.038174    0.000000
     11          1           0       -1.896541   -3.007701    0.000000
 ---------------------------------------------------------------------
                    Distance matrix (angstroms):
                    1          2          3          4          5
     1  C    0.000000
     2  C    1.400736   0.000000
     3  C    2.423926   1.402975   0.000000
     4  C    2.798779   2.428458   1.399128   0.000000
     5  C    2.435099   2.810933   2.425282   1.394781   0.000000
     6  C    1.367552   2.360465   2.715957   2.348051   1.364383
     7  Cl   1.724495   2.742683   4.033499   4.522211   3.998873
     8  Cl   2.708022   1.721969   2.716613   4.015907   4.532902
     9  Cl   4.009937   2.709591   1.724321   2.711399   4.010752
    10  Cl   4.526269   4.026944   2.725664   1.727641   2.689821
    11  H    3.415203   3.893309   3.407474   2.155350   1.082379
                    6          7          8          9         10
     6  C    0.000000
     7  Cl   2.692037   0.000000
     8  Cl   3.955602   3.183040   0.000000
     9  Cl   4.440278   5.446485   3.130302   0.000000
    10  Cl   3.938871   6.249137   5.434302   3.153017   0.000000
    11  H    2.153941   4.842324   5.615276   4.866705   2.829905
                   11
    11  H    0.000000
 Stoichiometry    C6HCl4(2)
 Framework group  CS[SG(C6HCl4)]
 Deg. of freedom    19
 Full point group                 CS      NOp   2
 Largest Abelian subgroup         CS      NOp   2
 Largest concise Abelian subgroup C1      NOp   1
                         Standard orientation:                         
 ---------------------------------------------------------------------
 Center     Atomic      Atomic             Coordinates (Angstroms)
 Number     Number       Type             X           Y           Z
 ---------------------------------------------------------------------
      1          6           0        0.070665    1.643778    0.000000
      2          6           0       -0.668847    0.454164    0.000000
      3          6           0        0.000000   -0.779117   -0.000000
      4          6           0        1.398532   -0.819945   -0.000000
      5          6           0        2.140545    0.361085   -0.000000
      6          6           0        1.433294    1.527848   -0.000000
      7         17           0       -0.678949    3.196828    0.000000
      8         17           0       -2.389822    0.512678    0.000000
      9         17           0       -0.908284   -2.244827   -0.000000
     10         17           0        2.243668   -2.326759   -0.000000
     11          1           0        3.222433    0.328496   -0.000000
 ---------------------------------------------------------------------
 Rotational constants (GHZ):           1.1863380           0.5459829           0.3739031
 Standard basis: 6-311++G(d,p) (5D, 7F)
 There are   200 symmetry adapted cartesian basis functions of A'  symmetry.
 There are    69 symmetry adapted cartesian basis functions of A"  symmetry.
 There are   190 symmetry adapted basis functions of A'  symmetry.
 There are    69 symmetry adapted basis functions of A"  symmetry.
   259 basis functions,   437 primitive gaussians,   269 cartesian basis functions
    53 alpha electrons       52 beta electrons
       nuclear repulsion energy       833.9881797722 Hartrees.
 NAtoms=   11 NActive=   11 NUniq=   11 SFac= 1.00D+00 NAtFMM=   60 NAOKFM=F Big=F
 Integral buffers will be    131072 words long.
 Raffenetti 2 integral format.
 Two-electron integral symmetry is turned on.
 One-electron integrals computed using PRISM.
 NBasis=   259 RedAO= T EigKep=  3.37D-06  NBF=   190    69
 NBsUse=   257 1.00D-06 EigRej=  7.92D-07 NBFU=   188    69
 Initial guess from the checkpoint file:  "frequency_chks/_2345ClBzNeutralRadical_Freq.chk"
 B after Tr=     0.000000   -0.000000    0.000000
         Rot=    1.000000   -0.000000    0.000000    0.000020 Ang=   0.00 deg.
 Initial guess orbital symmetries:
 Alpha Orbitals:
       Occupied  (A') (A') (A') (A') (A') (A') (A') (A') (A') (A')
                 (A') (A') (A') (A') (A') (A') (A') (A') (A") (A')
                 (A") (A') (A") (A') (A") (A') (A') (A') (A') (A')
                 (A') (A') (A') (A') (A') (A') (A') (A') (A") (A')
                 (A') (A') (A") (A") (A') (A") (A') (A") (A') (A')
                 (A') (A") (A")
       Virtual   (A") (A") (A') (A') (A') (A') (A') (A') (A") (A')
                 (A') (A") (A") (A') (A') (A') (A") (A') (A") (A')
                 (A') (A") (A') (A') (A') (A") (A') (A") (A') (A")
                 (A') (A') (A") (A') (A') (A') (A') (A") (A') (A')
                 (A') (A') (A') (A') (A') (A') (A') (A') (A') (A')
                 (A') (A') (A') (A") (A') (A') (A") (A') (A") (A')
                 (A') (A') (A") (A') (A") (A') (A') (A") (A") (A')
                 (A") (A") (A') (A') (A') (A") (A') (A') (A') (A")
                 (A') (A') (A") (A') (A') (A') (A") (A') (A') (A")
                 (A") (A") (A") (A') (A') (A') (A') (A') (A') (A')
                 (A') (A") (A") (A') (A') (A') (A') (A") (A') (A')
                 (A') (A') (A") (A') (A') (A") (A') (A") (A") (A')
                 (A') (A') (A') (A") (A') (A') (A') (A") (A') (A')
                 (A') (A") (A") (A") (A') (A') (A") (A') (A') (A')
                 (A") (A") (A') (A") (A") (A') (A") (A') (A') (A')
                 (A') (A') (A') (A') (A') (A') (A') (A") (A') (A')
                 (A") (A") (A") (A") (A') (A") (A') (A') (A') (A')
                 (A') (A') (A') (A') (A') (A') (A') (A') (A') (A')
                 (A') (A') (A') (A') (A') (A') (A') (A') (A") (A")
                 (A") (A") (A') (A') (A') (A') (A') (A') (A') (A')
                 (A') (A') (A') (A')
 Beta  Orbitals:
       Occupied  (A') (A') (A') (A') (A') (A') (A') (A') (A') (A')
                 (A') (A') (A') (A') (A') (A') (A') (A') (A") (A')
                 (A") (A') (A") (A') (A") (A') (A') (A') (A') (A')
                 (A') (A') (A') (A') (A') (A') (A') (A') (A") (A')
                 (A') (A') (A") (A") (A") (A') (A') (A') (A") (A')
                 (A") (A")
       Virtual   (A') (A") (A") (A') (A') (A') (A') (A') (A') (A")
                 (A') (A') (A") (A") (A') (A') (A') (A") (A') (A")
                 (A') (A") (A') (A') (A') (A") (A') (A') (A") (A')
                 (A') (A") (A') (A") (A') (A') (A') (A') (A') (A")
                 (A') (A') (A') (A') (A') (A') (A') (A') (A') (A')
                 (A') (A') (A') (A') (A") (A') (A") (A') (A') (A")
                 (A') (A') (A') (A") (A') (A") (A') (A') (A") (A")
                 (A') (A") (A") (A') (A') (A') (A") (A') (A') (A')
                 (A") (A') (A') (A") (A') (A') (A') (A") (A') (A')
                 (A") (A") (A") (A') (A") (A') (A') (A') (A') (A')
                 (A') (A') (A") (A') (A") (A') (A') (A') (A") (A')
                 (A') (A') (A') (A') (A") (A') (A") (A') (A") (A")
                 (A') (A') (A') (A') (A") (A') (A') (A') (A") (A')
                 (A') (A') (A") (A") (A") (A') (A') (A") (A') (A')
                 (A') (A") (A") (A') (A") (A") (A') (A") (A') (A')
                 (A') (A') (A') (A') (A') (A') (A') (A') (A") (A')
                 (A') (A") (A") (A") (A") (A') (A") (A') (A') (A')
                 (A') (A') (A') (A') (A') (A') (A') (A') (A') (A')
                 (A') (A') (A') (A') (A') (A') (A') (A') (A') (A")
                 (A") (A") (A") (A') (A') (A') (A') (A') (A') (A')
                 (A') (A') (A') (A') (A')
 Initial guess <Sx>= 0.0000 <Sy>= 0.0000 <Sz>= 0.5000 <S**2>= 0.7630 S= 0.5065
 Keep R1 and R2 ints in memory in symmetry-blocked form, NReq=892001928.
 Requested convergence on RMS density matrix=1.00D-08 within 128 cycles.
 Requested convergence on MAX density matrix=1.00D-06.
 Requested convergence on             energy=1.00D-06.
 No special actions if energy rises.
 SCF Done:  E(UM062X) =  -2069.89759922     A.U. after   15 cycles
            NFock= 15  Conv=0.35D-08     -V/T= 2.0023
 <Sx>= 0.0000 <Sy>= 0.0000 <Sz>= 0.5000 <S**2>= 0.7631 S= 0.5065
 <L.S>=  0.00000000000    
 Annihilation of the first spin contaminant:
 S**2 before annihilation     0.7631,   after     0.7501
 Calling FoFJK, ICntrl=      2127 FMM=F ISym2X=1 I1Cent= 0 IOpClX= 1 NMat=1 NMatS=1 NMatT=0.
 ***** Axes restored to original set *****
 -------------------------------------------------------------------
 Center     Atomic                   Forces (Hartrees/Bohr)
 Number     Number              X              Y              Z
 -------------------------------------------------------------------
      1        6           0.002109477   -0.000093738    0.000000000
      2        6          -0.000938726    0.000425647   -0.000000000
      3        6           0.001277612    0.000198188    0.000000000
      4        6          -0.000600847    0.000814339   -0.000000000
      5        6           0.000394001   -0.000975651    0.000000000
      6        6          -0.001054241    0.000292657   -0.000000000
      7       17          -0.001045352    0.000270457   -0.000000000
      8       17          -0.000206240   -0.000121564    0.000000000
      9       17          -0.000362298   -0.000615412    0.000000000
     10       17           0.000429342   -0.000133359    0.000000000
     11        1          -0.000002729   -0.000061562    0.000000000
 -------------------------------------------------------------------
 Cartesian Forces:  Max     0.002109477 RMS     0.000614475

 GradGradGradGradGradGradGradGradGradGradGradGradGradGradGradGradGradGrad
 Berny optimization.
 Using GEDIIS/GDIIS optimizer.
 FormGI is forming the generalized inverse of G from B-inverse, IUseBI=4.
 Internal  Forces:  Max     0.001058171 RMS     0.000343992
 Search for a local minimum.
 Step number   3 out of a maximum of   57
 All quantities printed in internal units (Hartrees-Bohrs-Radians)
 Mixed Optimization -- En-DIIS/RFO-DIIS
 Update second derivatives using D2CorX and points    1    2    3
 DE= -3.82D-04 DEPred=-3.50D-04 R= 1.09D+00
 TightC=F SS=  1.41D+00  RLast= 5.48D-02 DXNew= 7.1100D-01 1.6439D-01
 Trust test= 1.09D+00 RLast= 5.48D-02 DXMaxT set to 4.23D-01
 ITU=  1  1  0
 Use linear search instead of GDIIS.
     Eigenvalues ---    0.01844   0.01868   0.01878   0.01891   0.01935
     Eigenvalues ---    0.02011   0.02122   0.02370   0.15876   0.19494
     Eigenvalues ---    0.23786   0.25000   0.25000   0.25000   0.25055
     Eigenvalues ---    0.25467   0.31676   0.34680   0.37417   0.37652
     Eigenvalues ---    0.38453   0.39990   0.41276   0.42680   0.43520
     Eigenvalues ---    0.49536   0.51478
 RFO step:  Lambda=-1.69869428D-05 EMin= 1.84357057D-02
 Quartic linear search produced a step of  0.07409.
 Iteration  1 RMS(Cart)=  0.00193041 RMS(Int)=  0.00000263
 Iteration  2 RMS(Cart)=  0.00000274 RMS(Int)=  0.00000085
 Iteration  3 RMS(Cart)=  0.00000000 RMS(Int)=  0.00000085
 ClnCor:  largest displacement from symmetrization is 8.43D-10 for atom     9.
 Variable       Old X    -DE/DX   Delta X   Delta X   Delta X     New X
                                 (Linear)    (Quad)   (Total)
    R1        2.64701  -0.00042  -0.00074  -0.00085  -0.00159   2.64542
    R2        2.58430   0.00011   0.00006   0.00009   0.00015   2.58445
    R3        3.25882   0.00106   0.00199   0.00211   0.00410   3.26293
    R4        2.65124   0.00074  -0.00049   0.00195   0.00146   2.65270
    R5        3.25405  -0.00012   0.00146  -0.00088   0.00058   3.25463
    R6        2.64397  -0.00010  -0.00035  -0.00021  -0.00056   2.64341
    R7        3.25850  -0.00063   0.00108  -0.00214  -0.00106   3.25743
    R8        2.63575   0.00038  -0.00051   0.00110   0.00059   2.63635
    R9        3.26477   0.00044   0.00149   0.00072   0.00221   3.26698
   R10        2.57831   0.00064   0.00043   0.00104   0.00146   2.57977
   R11        2.04540   0.00006   0.00015  -0.00011   0.00004   2.04544
    A1        2.04210   0.00062   0.00112   0.00202   0.00314   2.04524
    A2        2.13572   0.00004  -0.00017   0.00027   0.00010   2.13582
    A3        2.10536  -0.00066  -0.00094  -0.00229  -0.00324   2.10212
    A4        2.08848  -0.00026  -0.00010  -0.00121  -0.00131   2.08717
    A5        2.09299  -0.00021   0.00027  -0.00099  -0.00072   2.09227
    A6        2.10172   0.00048  -0.00018   0.00220   0.00203   2.10375
    A7        2.09692  -0.00020  -0.00042  -0.00072  -0.00114   2.09578
    A8        2.08989   0.00064   0.00001   0.00280   0.00281   2.09270
    A9        2.09638  -0.00044   0.00041  -0.00208  -0.00167   2.09471
[...]
      6        6           0.000121940    0.000012524    0.000000000
      7       17           0.000084038   -0.000005980    0.000000000
      8       17          -0.000027107   -0.000192667    0.000000000
      9       17          -0.000106358   -0.000099088    0.000000000
     10       17          -0.000044378    0.000044712   -0.000000000
     11        1           0.000008820   -0.000000736    0.000000000
 -------------------------------------------------------------------
 Cartesian Forces:  Max     0.000273418 RMS     0.000089582
 FormGI is forming the generalized inverse of G from B-inverse, IUseBI=4.

 GradGradGradGradGradGradGradGradGradGradGradGradGradGradGradGradGradGrad
 Berny optimization.
 Internal  Forces:  Max     0.000191912 RMS     0.000052354
 Search for a local minimum.
 Step number   1 out of a maximum of    2
 All quantities printed in internal units (Hartrees-Bohrs-Radians)
 Second derivative matrix not updated -- analytic derivatives used.
 ITU=  0
     Eigenvalues ---    0.01528   0.01597   0.01828   0.02448   0.02759
     Eigenvalues ---    0.02909   0.03376   0.03673   0.10748   0.15334
     Eigenvalues ---    0.15887   0.17556   0.17903   0.19455   0.22980
     Eigenvalues ---    0.24366   0.26048   0.26897   0.29336   0.30614
     Eigenvalues ---    0.36757   0.38519   0.46340   0.46758   0.49279
     Eigenvalues ---    0.51443   0.52551
 Angle between quadratic step and forces=  17.63 degrees.
 Linear search not attempted -- first point.
 Iteration  1 RMS(Cart)=  0.00017832 RMS(Int)=  0.00000001
 Iteration  2 RMS(Cart)=  0.00000002 RMS(Int)=  0.00000000
 ClnCor:  largest displacement from symmetrization is 1.11D-10 for atom     7.
 Variable       Old X    -DE/DX   Delta X   Delta X   Delta X     New X
                                 (Linear)    (Quad)   (Total)
    R1        2.64491  -0.00002   0.00000  -0.00000  -0.00000   2.64490
    R2        2.58448  -0.00003   0.00000  -0.00003  -0.00003   2.58446
    R3        3.26432  -0.00008   0.00000  -0.00030  -0.00030   3.26402
    R4        2.65269   0.00016   0.00000   0.00049   0.00049   2.65318
    R5        3.25377  -0.00019   0.00000  -0.00079  -0.00079   3.25298
    R6        2.64379  -0.00008   0.00000  -0.00020  -0.00020   2.64359
    R7        3.25603  -0.00014   0.00000  -0.00055  -0.00055   3.25548
    R8        2.63669  -0.00002   0.00000   0.00004   0.00004   2.63673
    R9        3.26762  -0.00006   0.00000  -0.00018  -0.00018   3.26743
   R10        2.58003  -0.00008   0.00000  -0.00026  -0.00026   2.57977
   R11        2.04537   0.00000   0.00000   0.00000   0.00000   2.04538
    A1        2.04628  -0.00001   0.00000  -0.00004  -0.00004   2.04624
    A2        2.13628  -0.00004   0.00000  -0.00018  -0.00018   2.13610
    A3        2.10063   0.00005   0.00000   0.00022   0.00022   2.10085
    A4        2.08670  -0.00003   0.00000  -0.00014  -0.00014   2.08656
    A5        2.09344  -0.00004   0.00000  -0.00003  -0.00003   2.09341
    A6        2.10305   0.00007   0.00000   0.00016   0.00016   2.10321
    A7        2.09540  -0.00002   0.00000  -0.00003  -0.00003   2.09537
    A8        2.09169   0.00005   0.00000   0.00002   0.00002   2.09172
    A9        2.09609  -0.00003   0.00000   0.00001   0.00001   2.09610
   A10        2.10594   0.00002   0.00000   0.00009   0.00009   2.10603
   A11        2.10943  -0.00004   0.00000  -0.00014  -0.00014   2.10930
   A12        2.06781   0.00002   0.00000   0.00005   0.00005   2.06785
   A13        2.03347  -0.00000   0.00000  -0.00009  -0.00009   2.03338
   A14        2.10251  -0.00001   0.00000  -0.00008  -0.00008   2.10243
   A15        2.14720   0.00001   0.00000   0.00017   0.00017   2.14737
   A16        2.19858   0.00005   0.00000   0.00021   0.00021   2.19879
    D1        0.00000   0.00000   0.00000  -0.00000   0.00000   0.00000
    D2        3.14159  -0.00000   0.00000   0.00000   0.00000   3.14159
    D3        3.14159  -0.00000   0.00000  -0.00000   0.00000   3.14159
    D4        0.00000  -0.00000   0.00000  -0.00000   0.00000   0.00000
    D5       -0.00000   0.00000   0.00000   0.00000   0.00000   0.00000
    D6        3.14159   0.00000   0.00000   0.00000   0.00000   3.14159
    D7       -0.00000   0.00000   0.00000   0.00000   0.00000   0.00000
    D8        3.14159   0.00000   0.00000   0.00000   0.00000   3.14159
    D9        3.14159   0.00000   0.00000  -0.00000   0.00000   3.14159
   D10       -0.00000   0.00000   0.00000  -0.00000   0.00000   0.00000
   D11        0.00000  -0.00000   0.00000  -0.00000   0.00000   0.00000
   D12        3.14159   0.00000   0.00000  -0.00000   0.00000   3.14159
   D13        3.14159  -0.00000   0.00000  -0.00000   0.00000   3.14159
   D14       -0.00000   0.00000   0.00000  -0.00000   0.00000   0.00000
   D15       -0.00000   0.00000   0.00000   0.00000   0.00000   0.00000
   D16        3.14159   0.00000   0.00000   0.00000   0.00000   3.14159
   D17        3.14159  -0.00000   0.00000  -0.00000   0.00000   3.14159
   D18        0.00000   0.00000   0.00000  -0.00000   0.00000   0.00000
   D19        0.00000   0.00000   0.00000   0.00000  -0.00000   0.00000
   D20        3.14159  -0.00000   0.00000  -0.00000   0.00000   3.14159
         Item               Value     Threshold  Converged?
 Maximum Force            0.000192     0.000450     YES
 RMS     Force            0.000052     0.000300     YES
 Maximum Displacement     0.000602     0.001800     YES
 RMS     Displacement     0.000178     0.001200     YES
 Predicted change in Energy=-2.193431D-07
 Optimization completed.
    -- Stationary point found.
                           ----------------------------
                           !   Optimized Parameters   !
                           ! (Angstroms and Degrees)  !
 --------------------------                            --------------------------
 ! Name  Definition              Value          Derivative Info.                !
 --------------------------------------------------------------------------------
 ! R1    R(1,2)                  1.3996         -DE/DX =    0.0                 !
 ! R2    R(1,6)                  1.3677         -DE/DX =    0.0                 !
 ! R3    R(1,7)                  1.7274         -DE/DX =   -0.0001              !
 ! R4    R(2,3)                  1.4037         -DE/DX =    0.0002              !
 ! R5    R(2,8)                  1.7218         -DE/DX =   -0.0002              !
 ! R6    R(3,4)                  1.399          -DE/DX =   -0.0001              !
 ! R7    R(3,9)                  1.723          -DE/DX =   -0.0001              !
 ! R8    R(4,5)                  1.3953         -DE/DX =    0.0                 !
 ! R9    R(4,10)                 1.7291         -DE/DX =   -0.0001              !
 ! R10   R(5,6)                  1.3653         -DE/DX =   -0.0001              !
 ! R11   R(5,11)                 1.0824         -DE/DX =    0.0                 !
 ! A1    A(2,1,6)              117.2431         -DE/DX =    0.0                 !
 ! A2    A(2,1,7)              122.3996         -DE/DX =    0.0                 !
 ! A3    A(6,1,7)              120.3573         -DE/DX =    0.0001              !
 ! A4    A(1,2,3)              119.5591         -DE/DX =    0.0                 !
 ! A5    A(1,2,8)              119.9452         -DE/DX =    0.0                 !
 ! A6    A(3,2,8)              120.4957         -DE/DX =    0.0001              !
 ! A7    A(2,3,4)              120.0576         -DE/DX =    0.0                 !
 ! A8    A(2,3,9)              119.8453         -DE/DX =    0.0001              !
 ! A9    A(4,3,9)              120.0971         -DE/DX =    0.0                 !
 ! A10   A(3,4,5)              120.6616         -DE/DX =    0.0                 !
 ! A11   A(3,4,10)             120.8617         -DE/DX =    0.0                 !
 ! A12   A(5,4,10)             118.4766         -DE/DX =    0.0                 !
 ! A13   A(4,5,6)              116.5092         -DE/DX =    0.0                 !
 ! A14   A(4,5,11)             120.4652         -DE/DX =    0.0                 !
 ! A15   A(6,5,11)             123.0256         -DE/DX =    0.0                 !
 ! A16   A(1,6,5)              125.9693         -DE/DX =    0.0                 !
 ! D1    D(6,1,2,3)              0.0            -DE/DX =    0.0                 !
 ! D2    D(6,1,2,8)            180.0            -DE/DX =    0.0                 !
 ! D3    D(7,1,2,3)            180.0            -DE/DX =    0.0                 !
 ! D4    D(7,1,2,8)              0.0            -DE/DX =    0.0                 !
 ! D5    D(2,1,6,5)              0.0            -DE/DX =    0.0                 !
 ! D6    D(7,1,6,5)            180.0            -DE/DX =    0.0                 !
 ! D7    D(1,2,3,4)              0.0            -DE/DX =    0.0                 !
 ! D8    D(1,2,3,9)            180.0            -DE/DX =    0.0                 !
 ! D9    D(8,2,3,4)            180.0            -DE/DX =    0.0                 !
 ! D10   D(8,2,3,9)              0.0            -DE/DX =    0.0                 !
 ! D11   D(2,3,4,5)              0.0            -DE/DX =    0.0                 !
 ! D12   D(2,3,4,10)           180.0            -DE/DX =    0.0                 !
 ! D13   D(9,3,4,5)            180.0            -DE/DX =    0.0                 !
 ! D14   D(9,3,4,10)             0.0            -DE/DX =    0.0                 !
 ! D15   D(3,4,5,6)              0.0            -DE/DX =    0.0                 !
 ! D16   D(3,4,5,11)           180.0            -DE/DX =    0.0                 !
 ! D17   D(10,4,5,6)           180.0            -DE/DX =    0.0                 !
 ! D18   D(10,4,5,11)            0.0            -DE/DX =    0.0                 !
 ! D19   D(4,5,6,1)              0.0            -DE/DX =    0.0                 !
 ! D20   D(11,5,6,1)           180.0            -DE/DX =    0.0                 !
 --------------------------------------------------------------------------------
 GradGradGradGradGradGradGradGradGradGradGradGradGradGradGradGradGradGrad


 ----------------------------------------------------------------------

 Electric dipole moment (input orientation):
 (Debye = 10**-18 statcoulomb cm , SI units = C m)
                  (au)            (Debye)         (10**-30 SI)
   Tot        0.517579D+00      0.131556D+01      0.438822D+01
   x         -0.102647D+00     -0.260903D+00     -0.870278D+00
   y         -0.507299D+00     -0.128942D+01     -0.430106D+01
   z          0.000000D+00      0.000000D+00      0.000000D+00

 Dipole polarizability, Alpha (input orientation).
 (esu units = cm**3 , SI units = C**2 m**2 J**-1)
 Alpha(0;0):
               (au)            (10**-24 esu)      (10**-40 SI)
   iso        0.113487D+03      0.168170D+02      0.187114D+02
   aniso      0.827108D+02      0.122565D+02      0.136372D+02
   xx         0.146178D+03      0.216613D+02      0.241015D+02
   yx        -0.140773D+02     -0.208603D+01     -0.232103D+01
   yy         0.132927D+03      0.196978D+02      0.219168D+02
   zx         0.000000D+00      0.000000D+00      0.000000D+00
   zy         0.000000D+00      0.000000D+00      0.000000D+00
   zz         0.613548D+02      0.909184D+01      0.101160D+02

 ----------------------------------------------------------------------

 Dipole orientation:
     6         -5.86088856          1.18589492          0.92258672
     6         -3.97104082          0.80350225         -0.88787636
     6         -1.48790955          0.30106431         -0.10151667
     6         -0.91320745          0.18477882          2.47643196
     6         -2.78857006          0.56424057          4.29059285
     6         -5.16461390          1.04501038          3.40752427
    17         -8.95980387          1.81293089          0.11059913
    17         -4.70209553          0.95142420         -4.05500316
    17          0.84948066         -0.17188431         -2.31841595
    17          2.13192309         -0.43137431          3.48877895
     1         -2.33725032          0.47292032          6.28345996

 Electric dipole moment (dipole orientation):
 (Debye = 10**-18 statcoulomb cm , SI units = C m)
                  (au)            (Debye)         (10**-30 SI)
   Tot        0.517579D+00      0.131556D+01      0.438822D+01
   x          0.000000D+00      0.000000D+00      0.000000D+00
   y          0.000000D+00      0.000000D+00      0.000000D+00
   z          0.517579D+00      0.131556D+01      0.438822D+01

 Dipole polarizability, Alpha (dipole orientation).
 (esu units = cm**3 , SI units = C**2 m**2 J**-1)
 Alpha(0;0):
               (au)            (10**-24 esu)      (10**-40 SI)
   iso        0.113487D+03      0.168170D+02      0.187114D+02
   aniso      0.827108D+02      0.122565D+02      0.136372D+02
   xx         0.147598D+03      0.218718D+02      0.243357D+02
   yx        -0.174506D+02     -0.258591D+01     -0.287721D+01
   yy         0.648858D+02      0.961508D+01      0.106982D+02
   zx         0.101878D+02      0.150967D+01      0.167974D+01
   zy        -0.206140D+01     -0.305468D+00     -0.339879D+00
   zz         0.127976D+03      0.189641D+02      0.211004D+02

 ----------------------------------------------------------------------
 1\1\GINC-SH02-01N10\Freq\UM062X\6-311++G(d,p)\C6H1Cl4(2)\JLAPIER\09-De
 c-2025\0\\#N Geom=AllCheck Guess=TCheck SCRF=Check GenChk UM062X/6-311
 ++G(d,p) Freq\\Neutral Radical (removed 1) _2345\\0,2\C,-3.1982715176,
 0.1490340334,0.\C,-2.008204206,0.885706527,0.\C,-0.776713938,0.2119696
 361,0.\C,-0.7431430683,-1.1866607812,0.\C,-1.9259332565,-1.9268021906,
 0.\C,-3.0906059659,-1.214371943,0.\Cl,-4.7529310857,0.9019976815,0.\Cl
 ,-2.062680741,2.6066650354,0.\Cl,0.6928369726,1.1115266997,0.\Cl,0.762
 0276792,-2.0377851314,0.\H,-1.8962508732,-3.0087595667,0.\\Version=ES6
 4L-G16RevB.01\State=2-A'\HF=-2069.8976116\S2=0.763178\S2-1=0.\S2A=0.75
 008\RMSD=6.833e-09\RMSF=8.958e-05\ZeroPoint=0.0498658\Thermal=0.058871
 \Dipole=-0.1026471,-0.5072987,0.\DipoleDeriv=0.8838028,-0.3500454,0.,-
 0.4818745,0.0095224,0.,0.,0.,0.0131927,-0.1818248,-0.0599471,0.,-0.066
 5647,0.9766491,0.,0.,0.,0.002077,0.5468135,0.5630606,0.,0.5793118,-0.0
 734444,0.,0.,0.,0.0058378,0.7341198,-0.5831816,0.,-0.5085266,0.372745,
 0.,0.,0.,-0.0310832,-0.2069293,0.1071808,0.,0.0096414,-0.0905676,0.,0.
 ,0.,-0.0555231,-0.1760362,-0.0702275,0.,0.0552226,-0.0273652,0.,0.,0.,
 -0.0415972,-0.6508109,0.2502123,0.,0.29832,-0.131807,0.,0.,0.,-0.00909
 81,0.012053,0.0201512,0.,0.0559517,-0.6973487,0.,0.,0.,-0.0081502,-0.4
 764383,-0.2675494,0.,-0.2933991,-0.1447704,0.,0.,0.,-0.0079534,-0.5732
 933,0.3709613,0.,0.3378999,-0.2588089,0.,0.,0.,-0.0283691,0.0885437,0.
 0193849,0.,0.0140176,0.0651955,0.,0.,0.,0.1606667\Polar=146.1778262,-1
 4.0772514,132.9273714,0.,0.,61.3548011\Quadrupole=-1.6953082,3.171146,
 -1.4758378,0.9339788,0.,0.\PG=CS [SG(C6H1Cl4)]\NImag=0\\0.53273064,0.0
 0089306,0.62928701,0.,0.,0.10782508,-0.24547772,-0.04749535,0.,0.60960
 914,-0.13153772,-0.14946666,0.,0.00588237,0.54488132,0.,0.,-0.05624440
 ,0.,0.,0.10970012,-0.05528202,-0.03971056,0.,-0.24943699,0.11974990,0.
 ,0.56424659,0.02786472,0.07356503,0.,0.04416595,-0.14465822,0.,-0.0237
 5890,0.60270062,0.,0.,0.00126664,0.,0.,-0.05351331,0.,0.,0.11040268,-0
 .01625812,-0.03733114,0.,0.03652524,0.02503424,0.,-0.10065176,0.042678
 26,0.,0.56243528,-0.03530684,-0.06951961,0.,0.09472353,-0.02369475,0.,
 -0.03352216,-0.30332787,0.,0.04150675,0.60133733,0.,0.,0.00334533,0.,0
 .,-0.00067696,0.,0.,-0.05645209,0.,0.,0.11157587,0.03452332,0.08076603
 ,0.,-0.08113254,-0.00185667,0.,0.03843487,-0.08523052,0.,-0.24215546,-
 0.05693274,0.,0.63315753,0.03422999,-0.02325155,0.,-0.00296479,0.00280
 486,0.,-0.02122535,-0.02386564,0.,-0.14421095,-0.17957122,0.,-0.048414
 53,0.75632711,0.,0.,0.00248232,0.,0.,0.00411078,0.,0.,0.00340792,0.,0.
 ,-0.05731969,0.,0.,0.11705959,-0.08792980,0.00404143,0.,0.04566532,-0.
 01685645,0.,-0.02430047,0.03680540,0.,-0.07041256,-0.03531829,0.,-0.29
 475876,0.15047736,0.,0.45265224,0.03190827,-0.35636039,0.,-0.09021457,
 -0.03769428,0.,0.03621596,-0.06573780,0.,0.04098403,0.07522345,0.,0.10
 884181,-0.18176628,0.,-0.16827194,0.59439561,0.,0.,-0.05028317,0.,0.,0
 .00906609,0.,0.,0.00099472,0.,0.,0.00990912,0.,0.,-0.04752352,0.,0.,0.
 06958993,-0.16227676,0.05213881,0.,-0.03672996,0.01762376,0.,0.0007136
 7,-0.00325436,0.,-0.00057461,-0.00097386,0.,0.00212828,-0.00124912,0.,
 -0.01573325,0.02280793,0.,0.22063914,0.06967758,-0.06388900,0.,-0.0057
 2216,0.00240958,0.,-0.00087172,-0.00236960,0.,0.00043146,0.00156731,0.
 ,-0.00213227,-0.00332787,0.,0.03230887,-0.01860222,0.,-0.08730451,0.08
 377615,0.,0.,-0.02147399,0.,0.,0.00425753,0.,0.,0.00402395,0.,0.,-0.00
 058005,0.,0.,0.00379438,0.,0.,0.00146794,0.,0.,0.01016348,0.00078162,-
 0.02237451,0.,-0.03943323,0.00435136,0.,-0.00093473,0.02384964,0.,-0.0
 0325636,-0.00105896,0.,0.00076304,0.00072794,0.,-0.00334378,-0.0012593
 8,0.,-0.00426826,-0.00793421,0.,0.05612408,-0.00051155,-0.04004372,0.,
 0.00557013,-0.19351163,0.,0.00330528,-0.03645404,0.,0.00170617,0.00388
 728,0.,0.00104554,-0.00184390,0.,-0.00531103,0.00048390,0.,-0.00076432
 ,0.00031681,0.,-0.00666850,0.26787093,0.,0.,0.00422818,0.,0.,-0.023051
 89,0.,0.,0.00320228,0.,0.,0.00428856,0.,0.,-0.00136520,0.,0.,0.0041118
 5,0.,0.,-0.00131667,0.,0.,0.01095360,0.00063605,0.00420408,0.,-0.03866
 085,-0.02120915,0.,-0.15276270,-0.07051305,0.,-0.01658366,-0.01149396,
 0.,0.00252703,-0.00003972,0.,-0.00148716,-0.00079066,0.,-0.00185599,-0
 .00023577,0.,-0.00644932,0.00083136,0.,0.21215413,0.00198159,-0.001031
 03,0.,0.00013830,0.00061557,0.,-0.07042888,-0.08116211,0.,-0.03373551,
 -0.02100771,0.,0.00350626,-0.00394341,0.,-0.00089024,0.00000697,0.,0.0
 0005529,0.00047382,0.,0.00914662,0.00036158,0.,0.09508511,0.11462225,0
 .,0.,0.00422778,0.,0.,0.00299668,0.,0.,-0.02162262,0.,0.,0.00318241,0.
 ,0.,0.00395942,0.,0.,-0.00105793,0.,0.,0.00003406,0.,0.,-0.00107785,0.
 ,0.,0.01037590,0.00186953,0.00149666,0.,0.00062526,-0.00090023,0.,-0.0
 1672486,0.00901651,0.,-0.15182913,0.06533035,0.,-0.04231031,0.02181232
 ,0.,-0.00281435,-0.00508087,0.,-0.00170986,0.00092933,0.,-0.00007150,0
 .00074803,0.,0.00299485,-0.00347259,0.,0.20929576,0.00020407,0.0004870
 1,0.,-0.00412201,-0.00206750,0.,0.03236864,-0.01909814,0.,0.06040538,-
 0.07311591,0.,-0.00244161,0.00519097,0.,-0.00106846,0.00015071,0.,0.00
 098845,-0.00035764,0.,0.00125104,-0.00115625,0.,0.00428227,-0.00865678
 ,0.,-0.09113166,0.09769140,0.,0.,-0.00123722,0.,0.,0.00421735,0.,0.,0.
 00298563,0.,0.,-0.02209373,0.,0.,0.00487251,0.,0.,0.00461882,0.,0.,-0.
 00013398,0.,0.,0.00007118,0.,0.,-0.00110916,0.,0.,0.01038539,-0.003316
 74,0.00337149,0.,-0.00155366,-0.00028141,0.,-0.00330161,-0.00162365,0.
 ,0.00276115,-0.02695382,0.,-0.05117701,0.01085686,0.,0.00246256,0.0248
 5940,0.,-0.00033239,0.00085340,0.,0.00008845,0.00004889,0.,-0.00051237
 ,-0.00138596,0.,0.00067460,-0.00073611,0.,0.05420701,0.00059684,0.0002
 2292,0.,0.00003859,0.00038171,0.,-0.00212222,0.00040777,0.,0.00253130,
 -0.01177830,0.,0.00284869,-0.34675307,0.,0.00408336,-0.01009967,0.,-0.
 00006807,0.00000265,0.,-0.00003103,0.00008905,0.,-0.00012053,-0.000279
 13,0.,0.00125216,0.00093213,0.,-0.00900909,0.36687393,0.,0.,0.00586347
 ,0.,0.,-0.00086198,0.,0.,0.00530421,0.,0.,0.00482122,0.,0.,-0.03347850
 ,0.,0.,-0.00089385,0.,0.,-0.00023664,0.,0.,-0.00004404,0.,0.,0.0000913
 3,0.,0.,-0.00257679,0.,0.,0.02201159\\0.00009877,0.00001742,0.,0.00012
 393,-0.00027342,0.,-0.00025620,0.00007386,0.,-0.00000973,-0.00002170,0
 .,0.00008019,-0.00003740,0.,-0.00012194,-0.00001252,0.,-0.00008404,0.0
 0000598,0.,0.00002711,0.00019267,0.,0.00010636,0.00009909,0.,0.0000443
 8,-0.00004471,0.,-0.00000882,0.00000074,0.\\\@


 WHEN IT COMES TO CASH FLOW, IT SEEMS LIKE THE TIDE IS ALWAYS GOING OUT.
 Job cpu time:       0 days  0 hours 46 minutes 33.4 seconds.
 Elapsed time:       0 days  0 hours 11 minutes 40.3 seconds.
 File lengths (MBytes):  RWF=    205 Int=      0 D2E=      0 Chk=     34 Scr=      1
 Normal termination of Gaussian 16 at Tue Dec  9 14:07:54 2025.
