 Entering Gaussian System, Link 0=g16
 Initial command:
 /share/software/user/restricted/gaussian/g16.B01/l1.exe "/home/users/jlapier/Chloroaromatics/Gau-10666.inp" -scrdir="/home/users/jlapier/Chloroaromatics/"
 Entering Link 1 = /share/software/user/restricted/gaussian/g16.B01/l1.exe PID=     10667.
  
 Copyright (c) 1988-2017, Gaussian, Inc.  All Rights Reserved.
  
 This is part of the Gaussian(R) 16 program.  It is based on
 the Gaussian(R) 09 system (copyright 2009, Gaussian, Inc.),
 the Gaussian(R) 03 system (copyright 2003, Gaussian, Inc.),
 the Gaussian(R) 98 system (copyright 1998, Gaussian, Inc.),
 the Gaussian(R) 94 system (copyright 1995, Gaussian, Inc.),
 the Gaussian 92(TM) system (copyright 1992, Gaussian, Inc.),
 the Gaussian 90(TM) system (copyright 1990, Gaussian, Inc.),
 the Gaussian 88(TM) system (copyright 1988, Gaussian, Inc.),
 the Gaussian 86(TM) system (copyright 1986, Carnegie Mellon
 University), and the Gaussian 82(TM) system (copyright 1983,
 Carnegie Mellon University). Gaussian is a federally registered
 trademark of Gaussian, Inc.
  
 This software contains proprietary and confidential information,
 including trade secrets, belonging to Gaussian, Inc.
  
 This software is provided under written license and may be
 used, copied, transmitted, or stored only in accord with that
 written license.
  
 The following legend is applicable only to US Government
 contracts under FAR:
  
                    RESTRICTED RIGHTS LEGEND
  
 Use, reproduction and disclosure by the US Government is
 subject to restrictions as set forth in subparagraphs (a)
 and (c) of the Commercial Computer Software - Restricted
 Rights clause in FAR 52.227-19.
  
 Gaussian, Inc.
 340 Quinnipiac St., Bldg. 40, Wallingford CT 06492
  
  
 ---------------------------------------------------------------
 Warning -- This program may not be used in any manner that
 competes with the business of Gaussian, Inc. or will provide
 assistance to any competitor of Gaussian, Inc.  The licensee
 of this program is prohibited from giving any competitor of
 Gaussian, Inc. access to this program.  By using this program,
 the user acknowledges that Gaussian, Inc. is engaged in the
 business of creating and licensing software in the field of
 computational chemistry and represents and warrants to the
 licensee that it is not a competitor of Gaussian, Inc. and that
 it will not use this program in any manner prohibited above.
 ---------------------------------------------------------------
  

 Cite this work as:
 Gaussian 16, Revision B.01,
 M. J. Frisch, G. W. Trucks, H. B. Schlegel, G. E. Scuseria, 
 M. A. Robb, J. R. Cheeseman, G. Scalmani, V. Barone, 
 G. A. Petersson, H. Nakatsuji, X. Li, M. Caricato, A. V. Marenich, 
 J. Bloino, B. G. Janesko, R. Gomperts, B. Mennucci, H. P. Hratchian, 
 J. V. Ortiz, A. F. Izmaylov, J. L. Sonnenberg, D. Williams-Young, 
 F. Ding, F. Lipparini, F. Egidi, J. Goings, B. Peng, A. Petrone, 
 T. Henderson, D. Ranasinghe, V. G. Zakrzewski, J. Gao, N. Rega, 
 G. Zheng, W. Liang, M. Hada, M. Ehara, K. Toyota, R. Fukuda, 
 J. Hasegawa, M. Ishida, T. Nakajima, Y. Honda, O. Kitao, H. Nakai, 
 T. Vreven, K. Throssell, J. A. Montgomery, Jr., J. E. Peralta, 
 F. Ogliaro, M. J. Bearpark, J. J. Heyd, E. N. Brothers, K. N. Kudin, 
 V. N. Staroverov, T. A. Keith, R. Kobayashi, J. Normand, 
 K. Raghavachari, A. P. Rendell, J. C. Burant, S. S. Iyengar, 
 J. Tomasi, M. Cossi, J. M. Millam, M. Klene, C. Adamo, R. Cammi, 
 J. W. Ochterski, R. L. Martin, K. Morokuma, O. Farkas, 
 J. B. Foresman, and D. J. Fox, Gaussian, Inc., Wallingford CT, 2016.
 
 ******************************************
 Gaussian 16:  ES64L-G16RevB.01 20-Dec-2017
                 9-Dec-2025 
 ******************************************
 %mem=8GB
 %nprocshare=4
 Will use up to    4 processors via shared memory.
 %oldchk=geometry_chks/_235ClBzNeutralRadical.chk
 %chk=frequency_chks/_235ClBzNeutralRadical_Freq.chk
 Copying data from "geometry_chks/_235ClBzNeutralRadical.chk" to current chk file "frequency_chks/_235ClBzNeutralRadical_Freq.chk"
 IOpt=  2 FromEx=T IUOpen= 4 IOptOp= 5 NList=   0 IFRang= 0 IUIn= 4 IUOut= 2.
 -------------------------------------------------------
 # opt freq 6-311++g(d,p) guess=read geom=allcheck m062x
 -------------------------------------------------------
 1/18=20,19=15,26=3,29=7,38=1/1,3;
 2/9=110,12=2,40=1/2;
 3/5=4,6=6,7=1111,11=2,14=-4,25=1,30=1,71=1,74=-55,116=-2/1,2,3;
 4/5=1/1;
 5/5=2,38=6/2;
 6/7=2,8=2,9=2,10=2,28=1/1;
 7//1,2,3,16;
 1/18=20,19=15,26=3/3(2);
 2/9=110/2;
 99//99;
 2/9=110/2;
 3/5=4,6=6,7=1111,11=2,14=-2,25=1,30=1,71=1,74=-55/1,2,3;
 4/5=5,16=3,69=1/1;
 5/5=2,38=5/2;
 7//1,2,3,16;
 1/18=20,19=15,26=3/3(-5);
 2/9=110/2;
 6/7=2,8=2,9=2,10=2,19=2,28=1/1;
 99/9=1/99;
 Structure from the checkpoint file:  "frequency_chks/_235ClBzNeutralRadical_Freq.chk"
 --------------------------------
 Neutral Radical (removed 1) _235
 --------------------------------
 Charge =  0 Multiplicity = 2
 Redundant internal coordinates found in file.  (old form).
 C,0,-3.1811154527,0.193319501,0.
 C,0,-1.9643213315,0.9263235045,0.
 C,0,-0.7345743642,0.2430216158,0.
 C,0,-0.684488192,-1.1625544798,0.
 C,0,-1.8784243726,-1.9217419269,0.
 C,0,-3.0233174721,-1.1740655131,0.
 Cl,0,-4.6930570311,0.9214705281,0.
 Cl,0,-1.9737822057,2.6144183775,0.
 H,0,0.2038842985,0.8212211754,0.
 Cl,0,0.8114210031,-1.9498407681,0.
 H,0,-1.8820948797,-3.0190520144,0.
 Recover connectivity data from disk.

 GradGradGradGradGradGradGradGradGradGradGradGradGradGradGradGradGradGrad
 Berny optimization.
 Initialization pass.
                           ----------------------------
                           !    Initial Parameters    !
                           ! (Angstroms and Degrees)  !
 --------------------------                            --------------------------
 ! Name  Definition              Value          Derivative Info.                !
 --------------------------------------------------------------------------------
 ! R1    R(1,2)                  1.4205         estimate D2E/DX2                !
 ! R2    R(1,6)                  1.3765         estimate D2E/DX2                !
 ! R3    R(1,7)                  1.6781         estimate D2E/DX2                !
 ! R4    R(2,3)                  1.4068         estimate D2E/DX2                !
 ! R5    R(2,8)                  1.6881         estimate D2E/DX2                !
 ! R6    R(3,4)                  1.4065         estimate D2E/DX2                !
 ! R7    R(3,9)                  1.1023         estimate D2E/DX2                !
 ! R8    R(4,5)                  1.4149         estimate D2E/DX2                !
 ! R9    R(4,10)                 1.6904         estimate D2E/DX2                !
 ! R10   R(5,6)                  1.3674         estimate D2E/DX2                !
 ! R11   R(5,11)                 1.0973         estimate D2E/DX2                !
 ! A1    A(2,1,6)              114.4821         estimate D2E/DX2                !
 ! A2    A(2,1,7)              123.2195         estimate D2E/DX2                !
 ! A3    A(6,1,7)              122.2984         estimate D2E/DX2                !
 ! A4    A(1,2,3)              119.8765         estimate D2E/DX2                !
 ! A5    A(1,2,8)              120.7439         estimate D2E/DX2                !
 ! A6    A(3,2,8)              119.3796         estimate D2E/DX2                !
 ! A7    A(2,3,4)              121.0993         estimate D2E/DX2                !
 ! A8    A(2,3,9)              119.3036         estimate D2E/DX2                !
 ! A9    A(4,3,9)              119.5971         estimate D2E/DX2                !
 ! A10   A(3,4,5)              120.4102         estimate D2E/DX2                !
 ! A11   A(3,4,10)             119.7983         estimate D2E/DX2                !
 ! A12   A(5,4,10)             119.7915         estimate D2E/DX2                !
 ! A13   A(4,5,6)              114.4023         estimate D2E/DX2                !
 ! A14   A(4,5,11)             122.6427         estimate D2E/DX2                !
 ! A15   A(6,5,11)             122.955          estimate D2E/DX2                !
 ! A16   A(1,6,5)              129.7296         estimate D2E/DX2                !
 ! D1    D(6,1,2,3)              0.0            estimate D2E/DX2                !
 ! D2    D(6,1,2,8)            180.0            estimate D2E/DX2                !
 ! D3    D(7,1,2,3)            180.0            estimate D2E/DX2                !
 ! D4    D(7,1,2,8)              0.0            estimate D2E/DX2                !
 ! D5    D(2,1,6,5)              0.0            estimate D2E/DX2                !
 ! D6    D(7,1,6,5)            180.0            estimate D2E/DX2                !
 ! D7    D(1,2,3,4)              0.0            estimate D2E/DX2                !
 ! D8    D(1,2,3,9)            180.0            estimate D2E/DX2                !
 ! D9    D(8,2,3,4)            180.0            estimate D2E/DX2                !
 ! D10   D(8,2,3,9)              0.0            estimate D2E/DX2                !
 ! D11   D(2,3,4,5)              0.0            estimate D2E/DX2                !
 ! D12   D(2,3,4,10)           180.0            estimate D2E/DX2                !
 ! D13   D(9,3,4,5)            180.0            estimate D2E/DX2                !
 ! D14   D(9,3,4,10)             0.0            estimate D2E/DX2                !
 ! D15   D(3,4,5,6)              0.0            estimate D2E/DX2                !
 ! D16   D(3,4,5,11)           180.0            estimate D2E/DX2                !
 ! D17   D(10,4,5,6)           180.0            estimate D2E/DX2                !
 ! D18   D(10,4,5,11)            0.0            estimate D2E/DX2                !
 ! D19   D(4,5,6,1)              0.0            estimate D2E/DX2                !
 ! D20   D(11,5,6,1)           180.0            estimate D2E/DX2                !
 --------------------------------------------------------------------------------
 Trust Radius=3.00D-01 FncErr=1.00D-07 GrdErr=1.00D-06 EigMax=2.50D+02 EigMin=1.00D-04
 Number of steps in this run=     57 maximum allowed number of steps=    100.
 GradGradGradGradGradGradGradGradGradGradGradGradGradGradGradGradGradGrad

                          Input orientation:                          
 ---------------------------------------------------------------------
 Center     Atomic      Atomic             Coordinates (Angstroms)
 Number     Number       Type             X           Y           Z
 ---------------------------------------------------------------------
      1          6           0       -3.181115    0.193320   -0.000000
      2          6           0       -1.964321    0.926324    0.000000
      3          6           0       -0.734574    0.243022    0.000000
      4          6           0       -0.684488   -1.162554    0.000000
      5          6           0       -1.878424   -1.921742   -0.000000
      6          6           0       -3.023317   -1.174066   -0.000000
      7         17           0       -4.693057    0.921471   -0.000000
      8         17           0       -1.973782    2.614418    0.000000
      9          1           0        0.203884    0.821221    0.000000
     10         17           0        0.811421   -1.949841    0.000000
     11          1           0       -1.882095   -3.019052   -0.000000
 ---------------------------------------------------------------------
                    Distance matrix (angstroms):
                    1          2          3          4          5
     1  C    0.000000
     2  C    1.420522   0.000000
     3  C    2.447046   1.406833   0.000000
     4  C    2.841046   2.449772   1.406468   0.000000
     5  C    2.484047   2.849360   2.448386   1.414867   0.000000
     6  C    1.376460   2.352256   2.691929   2.338858   1.367406
     7  Cl   1.678145   2.728740   4.016202   4.517940   4.000752
     8  Cl   2.705434   1.688121   2.675660   3.990965   4.537162
     9  H    3.442744   2.170752   1.102279   2.173608   3.443814
    10  Cl   4.531389   3.997132   2.683048   1.690433   2.689992
    11  H    3.465081   3.946232   3.458024   2.209263   1.097316
                    6          7          8          9         10
     6  C    0.000000
     7  Cl   2.679422   0.000000
     8  Cl   3.931175   3.203206   0.000000
     9  H    3.794206   4.897967   2.820955   0.000000
    10  Cl   3.912422   6.208358   5.346945   2.836879   0.000000
    11  H    2.169416   4.840375   5.634216   4.370241   2.897972
                   11
    11  H    0.000000
 Stoichiometry    C6H2Cl3(2)
 Framework group  CS[SG(C6H2Cl3)]
 Deg. of freedom    19
 Full point group                 CS      NOp   2
 Largest Abelian subgroup         CS      NOp   2
 Largest concise Abelian subgroup C1      NOp   1
                         Standard orientation:                         
 ---------------------------------------------------------------------
 Center     Atomic      Atomic             Coordinates (Angstroms)
 Number     Number       Type             X           Y           Z
 ---------------------------------------------------------------------
      1          6           0        1.261157   -0.191276   -0.000000
      2          6           0        0.000000   -0.845009   -0.000000
      3          6           0       -1.183559   -0.084504    0.000000
      4          6           0       -1.143704    1.321400    0.000000
      5          6           0        0.096315    2.002724   -0.000000
      6          6           0        1.191079    1.183399   -0.000000
      7         17           0        2.723466   -1.014575   -0.000000
      8         17           0       -0.098454   -2.530256    0.000000
      9          1           0       -2.157055   -0.601539    0.000000
     10         17           0       -2.586235    2.202688    0.000000
     11          1           0        0.170113    3.097555   -0.000000
 ---------------------------------------------------------------------
 Rotational constants (GHZ):           1.9110634           0.6037594           0.4588087
 Standard basis: 6-311++G(d,p) (5D, 7F)
 There are   183 symmetry adapted cartesian basis functions of A'  symmetry.
 There are    62 symmetry adapted cartesian basis functions of A"  symmetry.
 There are   174 symmetry adapted basis functions of A'  symmetry.
 There are    62 symmetry adapted basis functions of A"  symmetry.
   236 basis functions,   393 primitive gaussians,   245 cartesian basis functions
    45 alpha electrons       44 beta electrons
       nuclear repulsion energy       615.7721266613 Hartrees.
 NAtoms=   11 NActive=   11 NUniq=   11 SFac= 1.00D+00 NAtFMM=   60 NAOKFM=F Big=F
 Integral buffers will be    131072 words long.
 Raffenetti 2 integral format.
 Two-electron integral symmetry is turned on.
 One-electron integrals computed using PRISM.
 NBasis=   236 RedAO= T EigKep=  1.07D-06  NBF=   174    62
 NBsUse=   236 1.00D-06 EigRej= -1.00D+00 NBFU=   174    62
 Initial guess from the checkpoint file:  "frequency_chks/_235ClBzNeutralRadical_Freq.chk"
 B after Tr=    -0.000000   -0.000000    0.000000
         Rot=    1.000000    0.000000   -0.000000   -0.000000 Ang=   0.00 deg.
 Initial guess orbital symmetries:
 Alpha Orbitals:
       Occupied  (A') (A') (A') (A') (A') (A') (A') (A') (A') (A')
                 (A') (A') (A") (A') (A") (A') (A") (A') (A') (A')
                 (A") (A') (A") (A") (A") (A") (A') (A') (A') (A")
                 (A') (A') (A') (A') (A') (A') (A') (A') (A') (A')
                 (A') (A') (A') (A') (A')
       Virtual   (A') (A') (A') (A') (A') (A') (A') (A') (A') (A')
                 (A') (A') (A') (A') (A') (A') (A') (A') (A') (A')
                 (A') (A') (A') (A') (A') (A') (A') (A') (A') (A')
                 (A') (A') (A') (A') (A') (A') (A') (A') (A') (A')
                 (A') (A') (A') (A') (A') (A') (A') (A') (A') (A')
                 (A') (A') (A') (A') (A') (A') (A') (A') (A') (A')
                 (A') (A') (A') (A') (A') (A') (A') (A') (A') (A')
                 (A') (A') (A') (A') (A') (A') (A') (A') (A') (A')
                 (A') (A') (A') (A') (A') (A') (A') (A') (A') (A')
                 (A') (A') (A') (A') (A') (A') (A') (A') (A') (A')
                 (A') (A') (A') (A') (A') (A') (A') (A') (A') (A')
                 (A') (A') (A') (A') (A') (A') (A') (A') (A') (A')
                 (A') (A') (A') (A') (A') (A') (A') (A') (A') (A')
                 (A') (A') (A') (A') (A') (A') (A') (A') (A") (A")
                 (A") (A") (A") (A") (A") (A") (A") (A") (A") (A")
                 (A") (A") (A") (A") (A") (A") (A") (A") (A") (A")
                 (A") (A") (A") (A") (A") (A") (A") (A") (A") (A")
                 (A") (A") (A") (A") (A") (A") (A") (A") (A") (A")
                 (A") (A") (A") (A") (A") (A") (A") (A") (A") (A")
                 (A")
 Beta  Orbitals:
       Occupied  (A') (A') (A') (A') (A') (A') (A') (A') (A') (A')
                 (A') (A') (A") (A') (A") (A') (A") (A') (A') (A')
                 (A") (A") (A") (A') (A") (A") (A') (A') (A') (A")
                 (A') (A') (A') (A') (A') (A') (A') (A') (A') (A')
                 (A') (A') (A') (A')
       Virtual   (A') (A') (A') (A') (A') (A') (A') (A') (A') (A')
                 (A') (A') (A') (A') (A') (A') (A') (A') (A') (A')
                 (A') (A') (A') (A') (A') (A') (A') (A') (A') (A')
                 (A') (A') (A') (A') (A') (A') (A') (A') (A') (A')
                 (A') (A') (A') (A') (A') (A') (A') (A') (A') (A')
                 (A') (A') (A') (A') (A') (A') (A') (A') (A') (A')
                 (A') (A') (A') (A') (A') (A') (A') (A') (A') (A')
                 (A') (A') (A') (A') (A') (A') (A') (A') (A') (A')
                 (A') (A') (A') (A') (A') (A') (A') (A') (A') (A')
                 (A') (A') (A') (A') (A') (A') (A') (A') (A') (A')
                 (A') (A') (A') (A') (A') (A') (A') (A') (A') (A')
                 (A') (A') (A') (A') (A') (A') (A') (A') (A') (A')
                 (A') (A') (A') (A') (A') (A') (A') (A') (A') (A')
                 (A') (A') (A') (A') (A') (A') (A') (A') (A') (A")
                 (A") (A") (A") (A") (A") (A") (A") (A") (A") (A")
                 (A") (A") (A") (A") (A") (A") (A") (A") (A") (A")
                 (A") (A") (A") (A") (A") (A") (A") (A") (A") (A")
                 (A") (A") (A") (A") (A") (A") (A") (A") (A") (A")
                 (A") (A") (A") (A") (A") (A") (A") (A") (A") (A")
                 (A") (A")
 Initial guess <Sx>= 0.0000 <Sy>= 0.0000 <Sz>= 0.5000 <S**2>= 0.7500 S= 0.5000
 Keep R1 and R2 ints in memory in symmetry-blocked form, NReq=617299900.
 Requested convergence on RMS density matrix=1.00D-08 within 128 cycles.
 Requested convergence on MAX density matrix=1.00D-06.
 Requested convergence on             energy=1.00D-06.
 No special actions if energy rises.
 EnCoef did     3 forward-backward iterations
 EnCoef did     4 forward-backward iterations
 SCF Done:  E(UM062X) =  -1610.30197004     A.U. after   30 cycles
            NFock= 30  Conv=0.62D-08     -V/T= 2.0023
 <Sx>= 0.0000 <Sy>= 0.0000 <Sz>= 0.5000 <S**2>= 0.7630 S= 0.5065
 <L.S>=  0.00000000000    
 Annihilation of the first spin contaminant:
 S**2 before annihilation     0.7630,   after     0.7501

 **********************************************************************

            Population analysis using the SCF Density.

 **********************************************************************

 Orbital symmetries:
 Alpha Orbitals:
       Occupied  (A') (A') (A') (A') (A') (A') (A') (A') (A') (A')
                 (A') (A') (A') (A') (A') (A") (A') (A") (A') (A")
                 (A') (A') (A') (A') (A') (A') (A') (A') (A') (A')
                 (A') (A') (A') (A") (A') (A') (A") (A") (A') (A')
                 (A") (A') (A') (A") (A")
       Virtual   (A") (A") (A') (A') (A') (A') (A') (A") (A') (A')
                 (A") (A') (A") (A') (A') (A') (A") (A') (A") (A')
                 (A') (A') (A") (A') (A") (A') (A') (A") (A') (A")
                 (A') (A') (A') (A") (A') (A') (A') (A') (A') (A')
                 (A') (A') (A') (A') (A') (A') (A') (A') (A') (A')
                 (A') (A') (A") (A') (A") (A') (A") (A') (A') (A')
                 (A') (A") (A') (A") (A') (A") (A") (A') (A") (A')
                 (A') (A') (A") (A') (A') (A') (A') (A") (A') (A')
                 (A") (A') (A') (A') (A") (A') (A") (A") (A') (A')
                 (A") (A') (A') (A') (A') (A') (A") (A') (A') (A")
                 (A') (A") (A') (A') (A') (A') (A') (A") (A") (A')
                 (A") (A') (A') (A') (A') (A") (A') (A") (A') (A')
                 (A") (A') (A') (A") (A') (A') (A") (A") (A') (A')
                 (A") (A') (A') (A') (A") (A") (A") (A') (A") (A')
                 (A') (A') (A') (A') (A') (A') (A') (A') (A") (A')
                 (A') (A') (A") (A") (A") (A") (A') (A") (A') (A')
                 (A') (A') (A') (A') (A') (A') (A') (A') (A') (A')
                 (A') (A') (A') (A') (A') (A') (A') (A') (A') (A")
                 (A") (A") (A') (A') (A') (A') (A') (A') (A') (A')
                 (A')
 Beta  Orbitals:
       Occupied  (A') (A') (A') (A') (A') (A') (A') (A') (A') (A')
                 (A') (A') (A') (A') (A') (A") (A") (A') (A') (A")
                 (A') (A') (A') (A') (A') (A') (A') (A') (A') (A')
                 (A') (A') (A') (A") (A') (A') (A") (A") (A') (A')
                 (A") (A') (A") (A")
       Virtual   (A') (A") (A") (A') (A') (A') (A') (A') (A") (A')
                 (A') (A") (A") (A') (A') (A') (A') (A") (A') (A")
                 (A') (A') (A') (A") (A') (A") (A') (A') (A') (A")
                 (A') (A") (A') (A') (A") (A') (A') (A') (A') (A')
                 (A') (A') (A') (A') (A') (A') (A') (A') (A') (A')
                 (A') (A') (A') (A") (A') (A") (A') (A") (A') (A')
                 (A') (A') (A") (A') (A') (A") (A') (A") (A") (A")
                 (A') (A') (A") (A') (A') (A') (A') (A') (A") (A')
                 (A') (A") (A') (A') (A') (A") (A") (A') (A") (A')
                 (A") (A') (A') (A') (A') (A') (A') (A") (A') (A')
                 (A") (A') (A") (A') (A') (A') (A') (A') (A") (A')
                 (A") (A") (A') (A') (A') (A') (A") (A") (A') (A')
                 (A') (A") (A') (A') (A") (A') (A') (A") (A") (A')
                 (A') (A") (A') (A') (A") (A') (A") (A") (A") (A')
                 (A') (A') (A') (A') (A') (A') (A') (A') (A') (A")
                 (A') (A') (A') (A") (A") (A") (A") (A') (A") (A')
                 (A') (A') (A') (A') (A') (A') (A') (A') (A') (A')
                 (A') (A') (A') (A') (A') (A') (A') (A') (A') (A')
                 (A") (A") (A") (A') (A') (A') (A') (A') (A') (A')
                 (A') (A')
 The electronic state is 2-A'.
 Alpha  occ. eigenvalues -- -102.69987-102.69970-102.69800 -10.64516 -10.64106
 Alpha  occ. eigenvalues --  -10.63868 -10.60747 -10.58988 -10.58898  -9.84330
 Alpha  occ. eigenvalues --   -9.84305  -9.84150  -7.56867  -7.56866  -7.56680
 Alpha  occ. eigenvalues --   -7.56167  -7.56139  -7.56119  -7.56113  -7.55987
 Alpha  occ. eigenvalues --   -7.55968  -1.05672  -1.01806  -0.99156  -0.94570
 Alpha  occ. eigenvalues --   -0.86345  -0.83394  -0.71851  -0.70006  -0.61197
 Alpha  occ. eigenvalues --   -0.59882  -0.55617  -0.53723  -0.52430  -0.50149
 Alpha  occ. eigenvalues --   -0.48430  -0.46813  -0.44042  -0.42049  -0.40049
 Alpha  occ. eigenvalues --   -0.39957  -0.39343  -0.33780  -0.33470  -0.30701
 Alpha virt. eigenvalues --   -0.02197  -0.01669  -0.00139   0.01201   0.02086
 Alpha virt. eigenvalues --    0.03022   0.04180   0.05138   0.05374   0.06523
 Alpha virt. eigenvalues --    0.07213   0.07370   0.08119   0.08629   0.08901
 Alpha virt. eigenvalues --    0.09837   0.10843   0.11199   0.11495   0.11881
 Alpha virt. eigenvalues --    0.12414   0.12829   0.13146   0.13587   0.14890
 Alpha virt. eigenvalues --    0.15321   0.15585   0.15925   0.16291   0.17680
 Alpha virt. eigenvalues --    0.17830   0.18678   0.19897   0.20337   0.20966
 Alpha virt. eigenvalues --    0.22344   0.23187   0.23973   0.24166   0.25366
 Alpha virt. eigenvalues --    0.26010   0.26544   0.27058   0.28435   0.29299
 Alpha virt. eigenvalues --    0.29882   0.30828   0.32931   0.33795   0.33977
 Alpha virt. eigenvalues --    0.43685   0.44668   0.45637   0.46614   0.47338
 Alpha virt. eigenvalues --    0.47642   0.49638   0.49770   0.50947   0.52448
 Alpha virt. eigenvalues --    0.52706   0.54430   0.56347   0.58922   0.59405
 Alpha virt. eigenvalues --    0.61214   0.62047   0.63410   0.63591   0.65262
 Alpha virt. eigenvalues --    0.67200   0.68236   0.68949   0.71068   0.73217
 Alpha virt. eigenvalues --    0.76785   0.79268   0.79268   0.84481   0.86273
 Alpha virt. eigenvalues --    0.86436   0.87890   0.88110   0.89436   0.89902
 Alpha virt. eigenvalues --    0.90637   0.90718   0.91690   0.93636   0.94673
 Alpha virt. eigenvalues --    0.95112   0.96073   0.97873   0.98329   0.99099
 Alpha virt. eigenvalues --    1.01232   1.02010   1.03779   1.09976   1.11300
 Alpha virt. eigenvalues --    1.11512   1.17078   1.18709   1.21817   1.25984
 Alpha virt. eigenvalues --    1.26747   1.30837   1.31562   1.33542   1.34251
 Alpha virt. eigenvalues --    1.37083   1.45237   1.50368   1.52953   1.58170
 Alpha virt. eigenvalues --    1.61201   1.62092   1.62684   1.70854   1.78510
 Alpha virt. eigenvalues --    1.83265   1.83817   1.85815   1.87531   1.91672
 Alpha virt. eigenvalues --    1.92673   1.93858   1.97360   2.04020   2.07858
 Alpha virt. eigenvalues --    2.11366   2.16146   2.25936   2.26634   2.27041
 Alpha virt. eigenvalues --    2.29438   2.30802   2.32633   2.32849   2.42872
 Alpha virt. eigenvalues --    2.43986   2.46306   2.48274   2.53664   2.58000
 Alpha virt. eigenvalues --    2.60988   2.64806   2.65555   2.66877   2.70462
 Alpha virt. eigenvalues --    2.74168   2.76738   2.79524   2.82056   2.89977
 Alpha virt. eigenvalues --    2.92130   2.98005   3.09093   3.13426   3.14595
 Alpha virt. eigenvalues --    3.23623   3.29472   3.34494   3.46610   3.60285
 Alpha virt. eigenvalues --    3.72645   3.83866   4.01003   4.10212   4.74987
 Alpha virt. eigenvalues --    9.93802   9.98617  10.00436  23.42794  23.86748
 Alpha virt. eigenvalues --   23.88548  24.01898  24.07219  24.19791  25.88162
 Alpha virt. eigenvalues --   25.92092  25.96767  26.17009  26.19672  26.33258
 Alpha virt. eigenvalues --   26.57466  26.73435  26.91196 216.03534 216.08936
 Alpha virt. eigenvalues --  216.11114
  Beta  occ. eigenvalues -- -102.69964-102.69938-102.69783 -10.64443 -10.64001
  Beta  occ. eigenvalues --  -10.63907 -10.59767 -10.59018 -10.58929  -9.84321
  Beta  occ. eigenvalues --   -9.84291  -9.84144  -7.56823  -7.56789  -7.56645
  Beta  occ. eigenvalues --   -7.56152  -7.56125  -7.56122  -7.56084  -7.55974
  Beta  occ. eigenvalues --   -7.55958  -1.05242  -1.01637  -0.98878  -0.93723
  Beta  occ. eigenvalues --   -0.85567  -0.82827  -0.70510  -0.69061  -0.60596
  Beta  occ. eigenvalues --   -0.59193  -0.55015  -0.53412  -0.52041  -0.49303
  Beta  occ. eigenvalues --   -0.47964  -0.46767  -0.43804  -0.41253  -0.39846
  Beta  occ. eigenvalues --   -0.39333  -0.39240  -0.32719  -0.30605
  Beta virt. eigenvalues --   -0.08459  -0.02229  -0.00571  -0.00033   0.01195
  Beta virt. eigenvalues --    0.02445   0.02739   0.04201   0.05377   0.05416
  Beta virt. eigenvalues --    0.06303   0.07009   0.07949   0.08143   0.08434
  Beta virt. eigenvalues --    0.08847   0.09875   0.10877   0.11210   0.11497
  Beta virt. eigenvalues --    0.11878   0.12581   0.12929   0.13035   0.13511
  Beta virt. eigenvalues --    0.14626   0.15383   0.15655   0.16314   0.16357
  Beta virt. eigenvalues --    0.17880   0.18078   0.18487   0.19850   0.20463
  Beta virt. eigenvalues --    0.21308   0.22246   0.23267   0.23757   0.24156
  Beta virt. eigenvalues --    0.25098   0.25594   0.26803   0.27303   0.28108
  Beta virt. eigenvalues --    0.28815   0.29859   0.31562   0.32935   0.34001
  Beta virt. eigenvalues --    0.34527   0.43521   0.44928   0.45666   0.46341
  Beta virt. eigenvalues --    0.47341   0.47723   0.49705   0.49889   0.51140
  Beta virt. eigenvalues --    0.52465   0.52962   0.54647   0.56190   0.58061
  Beta virt. eigenvalues --    0.59003   0.61048   0.61197   0.62231   0.63651
  Beta virt. eigenvalues --    0.65200   0.67546   0.68769   0.69814   0.71262
  Beta virt. eigenvalues --    0.73409   0.76321   0.78865   0.79468   0.84445
  Beta virt. eigenvalues --    0.86276   0.86511   0.87870   0.88215   0.89520
  Beta virt. eigenvalues --    0.89964   0.90779   0.90835   0.91730   0.93151
  Beta virt. eigenvalues --    0.95260   0.95307   0.95756   0.97700   0.98226
  Beta virt. eigenvalues --    0.99013   1.01213   1.02502   1.03739   1.09973
  Beta virt. eigenvalues --    1.11696   1.12149   1.18421   1.18470   1.21907
  Beta virt. eigenvalues --    1.25494   1.26680   1.30837   1.32399   1.34056
  Beta virt. eigenvalues --    1.34340   1.37342   1.46749   1.51031   1.54099
  Beta virt. eigenvalues --    1.58301   1.61762   1.62740   1.62787   1.71519
  Beta virt. eigenvalues --    1.78775   1.83581   1.84605   1.86605   1.87587
  Beta virt. eigenvalues --    1.92162   1.93061   1.94462   1.97651   2.04433
  Beta virt. eigenvalues --    2.08035   2.11575   2.16345   2.25964   2.27074
  Beta virt. eigenvalues --    2.27455   2.29511   2.31176   2.32911   2.32913
  Beta virt. eigenvalues --    2.42938   2.44497   2.46560   2.48691   2.53787
  Beta virt. eigenvalues --    2.58111   2.61172   2.65364   2.65961   2.66996
  Beta virt. eigenvalues --    2.70856   2.74332   2.76684   2.80031   2.82092
  Beta virt. eigenvalues --    2.90122   2.91943   3.00582   3.09175   3.13898
  Beta virt. eigenvalues --    3.15488   3.23734   3.29658   3.34845   3.47189
  Beta virt. eigenvalues --    3.60794   3.72614   3.83950   4.01504   4.10338
  Beta virt. eigenvalues --    4.75197   9.93812   9.98625  10.00445  23.42935
  Beta virt. eigenvalues --   23.86866  23.88651  24.02028  24.07202  24.20463
  Beta virt. eigenvalues --   25.88189  25.92135  25.96795  26.17070  26.19715
  Beta virt. eigenvalues --   26.33301  26.57625  26.73528  26.91338 216.03573
  Beta virt. eigenvalues --  216.08970 216.11157
          Condensed to atoms (all electrons):
               1          2          3          4          5          6
     1  C   25.294858  -4.682552  -1.093645  -4.494130  -1.292880  -6.780790
     2  C   -4.682552  28.213459 -10.353869  -0.400742  -4.949036  -1.542265
     3  C   -1.093645 -10.353869  35.904879  -2.601299  -3.566143 -12.413705
     4  C   -4.494130  -0.400742  -2.601299  15.375326  -0.847945  -0.222209
     5  C   -1.292880  -4.949036  -3.566143  -0.847945  15.856567   1.245587
     6  C   -6.780790  -1.542265 -12.413705  -0.222209   1.245587  26.617251
     7  Cl  -0.622277   0.367152   1.103244   0.014149   0.027597  -1.734753
     8  Cl  -0.142390  -0.900030  -0.641752  -0.128624   0.130599   1.031097
     9  H   -0.023096  -0.044851   0.576249  -0.127659  -0.095775   0.007750
    10  Cl   0.145570  -0.081949   0.276376  -1.130041  -0.057237   0.134625
    11  H   -0.100686   0.025504  -0.133004  -0.024037   0.432899   0.131645
               7          8          9         10         11
     1  C   -0.622277  -0.142390  -0.023096   0.145570  -0.100686
     2  C    0.367152  -0.900030  -0.044851  -0.081949   0.025504
     3  C    1.103244  -0.641752   0.576249   0.276376  -0.133004
     4  C    0.014149  -0.128624  -0.127659  -1.130041  -0.024037
     5  C    0.027597   0.130599  -0.095775  -0.057237   0.432899
     6  C   -1.734753   1.031097   0.007750   0.134625   0.131645
     7  Cl  17.661287  -0.303624  -0.004432  -0.010281  -0.003784
     8  Cl  -0.303624  17.557116   0.006623  -0.020531  -0.001124
     9  H   -0.004432   0.006623   0.469994   0.016720  -0.002198
    10  Cl  -0.010281  -0.020531   0.016720  17.387250  -0.000357
    11  H   -0.003784  -0.001124  -0.002198  -0.000357   0.466636
          Atomic-Atomic Spin Densities.
               1          2          3          4          5          6
     1  C    0.546308  -0.671614   0.225804  -0.239767   1.054020  -0.797070
     2  C   -0.671614   0.721068  -0.388547   0.176489  -0.393119   0.676409
     3  C    0.225804  -0.388547   0.594240   0.015155   0.234090  -0.705441
     4  C   -0.239767   0.176489   0.015155   0.311199  -0.671012   0.483596
     5  C    1.054020  -0.393119   0.234090  -0.671012   1.210310  -1.441601
     6  C   -0.797070   0.676409  -0.705441   0.483596  -1.441601   2.497787
     7  Cl  -0.063198   0.106379   0.045026   0.016779  -0.071281  -0.049257
     8  Cl   0.131911  -0.117502  -0.028028  -0.030811   0.061218  -0.030079
     9  H    0.008343  -0.019137   0.022871  -0.004322   0.010916  -0.020398
    10  Cl   0.045420  -0.050272   0.018011  -0.072804   0.133949  -0.098977
    11  H   -0.021810   0.009692  -0.022263  -0.003266  -0.009774   0.039544
               7          8          9         10         11
     1  C   -0.063198   0.131911   0.008343   0.045420  -0.021810
     2  C    0.106379  -0.117502  -0.019137  -0.050272   0.009692
     3  C    0.045026  -0.028028   0.022871   0.018011  -0.022263
     4  C    0.016779  -0.030811  -0.004322  -0.072804  -0.003266
     5  C   -0.071281   0.061218   0.010916   0.133949  -0.009774
     6  C   -0.049257  -0.030079  -0.020398  -0.098977   0.039544
     7  Cl   0.052629  -0.027771   0.000132  -0.000501  -0.000842
     8  Cl  -0.027771   0.051822   0.000750   0.003420  -0.000001
     9  H    0.000132   0.000750   0.002381   0.001572  -0.000725
    10  Cl  -0.000501   0.003420   0.001572   0.037472  -0.001368
    11  H   -0.000842  -0.000001  -0.000725  -0.001368   0.036901
 Mulliken charges and spin densities:
               1          2
     1  C   -0.207982   0.218348
     2  C    0.349178   0.049846
     3  C   -1.057333   0.010918
     4  C    0.587210  -0.018764
     5  C   -0.884233   0.117717
     6  C   -0.474235   0.554513
     7  Cl   0.505722   0.008098
     8  Cl   0.412639   0.014929
     9  H    0.220673   0.002384
    10  Cl   0.339854   0.015923
    11  H    0.208506   0.026088
 Sum of Mulliken charges =  -0.00000   1.00000
 Mulliken charges and spin densities with hydrogens summed into heavy atoms:
               1          2
     1  C   -0.207982   0.218348
     2  C    0.349178   0.049846
     3  C   -0.836660   0.013302
     4  C    0.587210  -0.018764
     5  C   -0.675727   0.143805
     6  C   -0.474235   0.554513
     7  Cl   0.505722   0.008098
     8  Cl   0.412639   0.014929
    10  Cl   0.339854   0.015923
 Electronic spatial extent (au):  <R**2>=           2107.7939
 Charge=              0.0000 electrons
 Dipole moment (field-independent basis, Debye):
    X=             -0.5056    Y=              0.7608    Z=              0.0000  Tot=              0.9135
 Quadrupole moment (field-independent basis, Debye-Ang):
   XX=            -72.4889   YY=            -69.2822   ZZ=            -74.2109
   XY=              2.0021   XZ=              0.0000   YZ=              0.0000
 Traceless Quadrupole moment (field-independent basis, Debye-Ang):
   XX=             -0.4949   YY=              2.7118   ZZ=             -2.2169
   XY=              2.0021   XZ=              0.0000   YZ=              0.0000
 Octapole moment (field-independent basis, Debye-Ang**2):
  XXX=             -4.8343  YYY=              0.2006  ZZZ=             -0.0000  XYY=              2.1428
  XXY=             -9.0184  XXZ=             -0.0000  XZZ=             -0.0414  YZZ=             -4.6181
  YYZ=             -0.0000  XYZ=             -0.0000
 Hexadecapole moment (field-independent basis, Debye-Ang**3):
 XXXX=          -1314.3124 YYYY=          -1225.2169 ZZZZ=            -85.6753 XXXY=            284.0888
 XXXZ=              0.0000 YYYX=            310.3507 YYYZ=             -0.0000 ZZZX=              0.0000
 ZZZY=             -0.0000 XXYY=           -435.6462 XXZZ=           -246.6985 YYZZ=           -239.8713
 XXYZ=             -0.0000 YYXZ=              0.0000 ZZXY=            103.9346
 N-N= 6.157721266613D+02 E-N=-5.045876305772D+03  KE= 1.606555745184D+03
 Symmetry A'   KE= 1.462247097168D+03
 Symmetry A"   KE= 1.443086480152D+02
 Symmetry A'   SP= 9.999999999999D-01
 Symmetry A"   SP= 3.156034978239D-14
                          Isotropic Fermi Contact Couplings
        Atom                 a.u.       MegaHertz       Gauss      10(-4) cm-1
     1  C(13)             -0.01209     -13.59036      -4.84938      -4.53326
     2  C(13)              0.05214      58.61312      20.91462      19.55123
     3  C(13)             -0.00831      -9.34682      -3.33518      -3.11776
     4  C(13)              0.07335      82.45979      29.42370      27.50562
     5  C(13)              0.00542       6.09850       2.17610       2.03424
     6  C(13)              0.43431     488.24327     174.21734     162.86043
     7  Cl(35)             0.01929       8.45585       3.01726       2.82057
     8  Cl(35)             0.00687       3.01075       1.07431       1.00428
     9  H(1)               0.00040       1.79960       0.64214       0.60028
    10  Cl(35)             0.00221       0.96707       0.34508       0.32258
    11  H(1)               0.01273      56.91322      20.30805      18.98421
 --------------------------------------------------------
       Center         ----  Spin Dipole Couplings  ----
                      3XX-RR        3YY-RR        3ZZ-RR
 --------------------------------------------------------
     1   Atom       -0.019317      0.121991     -0.102674
     2   Atom        0.014009     -0.017071      0.003062
     3   Atom        0.030969      0.022646     -0.053614
     4   Atom        0.017828     -0.016451     -0.001376
     5   Atom        0.081662      0.016586     -0.098248
     6   Atom        0.638150     -0.242312     -0.395839
     7   Atom        0.021132      0.124793     -0.145925
     8   Atom       -0.019756      0.057395     -0.037639
     9   Atom        0.001185      0.001320     -0.002505
    10   Atom        0.082888     -0.059054     -0.023834
    11   Atom        0.002592      0.009094     -0.011686
 --------------------------------------------------------
                        XY            XZ            YZ
 --------------------------------------------------------
     1   Atom       -0.003703     -0.000000     -0.000000
     2   Atom        0.019952     -0.000000     -0.000000
     3   Atom        0.006131     -0.000000     -0.000000
     4   Atom        0.032297     -0.000000     -0.000000
     5   Atom       -0.038617     -0.000000      0.000000
     6   Atom        0.634412      0.000000      0.000000
     7   Atom       -0.139031      0.000000     -0.000000
     8   Atom        0.084857      0.000000      0.000000
     9   Atom        0.000054     -0.000000     -0.000000
    10   Atom       -0.015288      0.000000      0.000000
    11   Atom       -0.015833     -0.000000      0.000000
 --------------------------------------------------------


 ---------------------------------------------------------------------------------
              Anisotropic Spin Dipole Couplings in Principal Axis System
 ---------------------------------------------------------------------------------

       Atom             a.u.   MegaHertz   Gauss  10(-4) cm-1        Axes

              Baa    -0.1027   -13.778    -4.916    -4.596  0.0000  0.0000  1.0000
     1 C(13)  Bbb    -0.0194    -2.605    -0.930    -0.869  0.9997  0.0262 -0.0000
              Bcc     0.1221    16.383     5.846     5.465 -0.0262  0.9997 -0.0000
 
              Baa    -0.0268    -3.599    -1.284    -1.201 -0.4391  0.8985 -0.0000
     2 C(13)  Bbb     0.0031     0.411     0.147     0.137  0.0000  0.0000  1.0000
              Bcc     0.0238     3.188     1.138     1.063  0.8985  0.4391 -0.0000
 
              Baa    -0.0536    -7.195    -2.567    -2.400  0.0000  0.0000  1.0000
     3 C(13)  Bbb     0.0194     2.603     0.929     0.868 -0.4682  0.8836  0.0000
              Bcc     0.0342     4.592     1.638     1.532  0.8836  0.4682 -0.0000
 
              Baa    -0.0359    -4.814    -1.718    -1.606 -0.5154  0.8570  0.0000
     4 C(13)  Bbb    -0.0014    -0.185    -0.066    -0.062  0.0000  0.0000  1.0000
              Bcc     0.0373     4.999     1.784     1.667  0.8570  0.5154 -0.0000
 
              Baa    -0.0982   -13.184    -4.704    -4.398  0.0000  0.0000  1.0000
     5 C(13)  Bbb    -0.0014    -0.184    -0.066    -0.061  0.4217  0.9067 -0.0000
              Bcc     0.0996    13.368     4.770     4.459  0.9067 -0.4217  0.0000
 
              Baa    -0.5743   -77.062   -27.498   -25.705 -0.4636  0.8860  0.0000
     6 C(13)  Bbb    -0.3958   -53.118   -18.954   -17.718  0.0000  0.0000  1.0000
              Bcc     0.9701   130.180    46.451    43.423  0.8860  0.4636 -0.0000
 
              Baa    -0.1459    -7.637    -2.725    -2.548  0.0000  0.0000  1.0000
     7 Cl(35) Bbb    -0.0754    -3.947    -1.408    -1.317  0.8214  0.5704 -0.0000
              Bcc     0.2213    11.584     4.134     3.864 -0.5704  0.8214 -0.0000
 
              Baa    -0.0744    -3.894    -1.389    -1.299  0.8408 -0.5414  0.0000
     8 Cl(35) Bbb    -0.0376    -1.970    -0.703    -0.657  0.0000  0.0000  1.0000
              Bcc     0.1120     5.864     2.092     1.956  0.5414  0.8408 -0.0000
 
              Baa    -0.0025    -1.337    -0.477    -0.446  0.0000  0.0000  1.0000
     9 H(1)   Bbb     0.0012     0.622     0.222     0.207  0.9433 -0.3319  0.0000
              Bcc     0.0013     0.715     0.255     0.238  0.3319  0.9433 -0.0000
 
              Baa    -0.0607    -3.176    -1.133    -1.059  0.1059  0.9944 -0.0000
    10 Cl(35) Bbb    -0.0238    -1.247    -0.445    -0.416  0.0000  0.0000  1.0000
              Bcc     0.0845     4.423     1.578     1.475  0.9944 -0.1059 -0.0000
 
              Baa    -0.0117    -6.235    -2.225    -2.080  0.0000  0.0000  1.0000
    11 H(1)   Bbb    -0.0103    -5.506    -1.965    -1.837  0.7750  0.6320  0.0000
              Bcc     0.0220    11.742     4.190     3.917 -0.6320  0.7750 -0.0000
 

 ---------------------------------------------------------------------------------

 Calling FoFJK, ICntrl=      2127 FMM=F ISym2X=1 I1Cent= 0 IOpClX= 1 NMat=1 NMatS=1 NMatT=0.
 ***** Axes restored to original set *****
 -------------------------------------------------------------------
 Center     Atomic                   Forces (Hartrees/Bohr)
 Number     Number              X              Y              Z
 -------------------------------------------------------------------
      1        6           0.040928455   -0.011362334    0.000000000
      2        6          -0.001112332   -0.032907249   -0.000000000
      3        6           0.002559824   -0.001468464    0.000000000
      4        6          -0.031467557    0.015686722   -0.000000000
      5        6           0.007965720    0.005765433    0.000000000
      6        6          -0.006914005   -0.000736657   -0.000000000
      7       17          -0.022648946    0.010672777   -0.000000000
      8       17          -0.000003496    0.021350996    0.000000000
      9        1          -0.011697136   -0.006885155   -0.000000000
     10       17           0.020885064   -0.010418208    0.000000000
     11        1           0.001504409    0.010302138    0.000000000
 -------------------------------------------------------------------
 Cartesian Forces:  Max     0.040928455 RMS     0.013705222

 GradGradGradGradGradGradGradGradGradGradGradGradGradGradGradGradGradGrad
 Berny optimization.
 FormGI is forming the generalized inverse of G from B-inverse, IUseBI=4.
 Internal  Forces:  Max     0.025036414 RMS     0.007739283
 Search for a local minimum.
 Step number   1 out of a maximum of   57
 All quantities printed in internal units (Hartrees-Bohrs-Radians)
 Mixed Optimization -- RFO/linear search
 Second derivative matrix not updated -- first step.
 ITU=  0
     Eigenvalues ---    0.01893   0.01935   0.01950   0.01970   0.02001
     Eigenvalues ---    0.02024   0.02112   0.02376   0.16000   0.16000
     Eigenvalues ---    0.23375   0.23488   0.25000   0.25000   0.25000
     Eigenvalues ---    0.25000   0.33431   0.33981   0.37067   0.37359
     Eigenvalues ---    0.38655   0.40147   0.42170   0.42854   0.44309
     Eigenvalues ---    0.48551   0.50584
 RFO step:  Lambda=-7.34136244D-03 EMin= 1.89340772D-02
 Linear search not attempted -- first point.
 Iteration  1 RMS(Cart)=  0.01944039 RMS(Int)=  0.00012017
 Iteration  2 RMS(Cart)=  0.00015024 RMS(Int)=  0.00002104
 Iteration  3 RMS(Cart)=  0.00000002 RMS(Int)=  0.00002104
 ClnCor:  largest displacement from symmetrization is 7.09D-09 for atom     9.
 Variable       Old X    -DE/DX   Delta X   Delta X   Delta X     New X
                                 (Linear)    (Quad)   (Total)
    R1        2.68440  -0.01257   0.00000  -0.02892  -0.02892   2.65548
    R2        2.60113  -0.00662   0.00000  -0.01252  -0.01248   2.58865
    R3        3.17123   0.02504   0.00000   0.06356   0.06356   3.23480
    R4        2.65853  -0.01220   0.00000  -0.02742  -0.02744   2.63109
    R5        3.19009   0.02135   0.00000   0.05605   0.05605   3.24613
    R6        2.65784  -0.01475   0.00000  -0.03322  -0.03325   2.62458
    R7        2.08301  -0.01357   0.00000  -0.03972  -0.03972   2.04329
    R8        2.67371  -0.01291   0.00000  -0.02959  -0.02960   2.64411
    R9        3.19446   0.02333   0.00000   0.06173   0.06173   3.25619
   R10        2.58402  -0.00347   0.00000  -0.00623  -0.00621   2.57782
   R11        2.07363  -0.01031   0.00000  -0.02969  -0.02969   2.04394
    A1        1.99809   0.00378   0.00000   0.01586   0.01589   2.01398
    A2        2.15059  -0.00154   0.00000  -0.00659  -0.00660   2.14398
    A3        2.13451  -0.00223   0.00000  -0.00927  -0.00929   2.12522
    A4        2.09224   0.00095   0.00000   0.00291   0.00288   2.09512
    A5        2.10738  -0.00030   0.00000  -0.00077  -0.00075   2.10662
    A6        2.08357  -0.00065   0.00000  -0.00214  -0.00213   2.08144
    A7        2.11358  -0.00002   0.00000  -0.00274  -0.00281   2.11078
    A8        2.08224  -0.00028   0.00000  -0.00036  -0.00033   2.08191
    A9        2.08736   0.00030   0.00000   0.00310   0.00313   2.09050
   A10        2.10155   0.00058   0.00000   0.00029   0.00025   2.10180
   A11        2.09088  -0.00111   0.00000  -0.00333  -0.00331   2.08757
   A12        2.09076   0.00053   0.00000   0.00304   0.00306   2.09382
   A13        1.99670   0.00433   0.00000   0.01902   0.01904   2.01573
   A14        2.14052  -0.00369   0.00000  -0.01865  -0.01866   2.12186
   A15        2.14597  -0.00063   0.00000  -0.00037  -0.00038   2.14559
   A16        2.26421  -0.00963   0.00000  -0.03532  -0.03525   2.22896
    D1        0.00000   0.00000   0.00000  -0.00000  -0.00000   0.00000
    D2        3.14159   0.00000   0.00000  -0.00000   0.00000   3.14159
    D3        3.14159   0.00000   0.00000   0.00000   0.00000   3.14159
    D4        0.00000   0.00000   0.00000  -0.00000   0.00000   0.00000
    D5       -0.00000   0.00000   0.00000   0.00000   0.00000   0.00000
    D6        3.14159  -0.00000   0.00000  -0.00000   0.00000   3.14159
    D7       -0.00000  -0.00000   0.00000   0.00000   0.00000   0.00000
    D8        3.14159  -0.00000   0.00000  -0.00000   0.00000   3.14159
    D9        3.14159  -0.00000   0.00000   0.00000   0.00000   3.14159
   D10        0.00000   0.00000   0.00000   0.00000   0.00000   0.00000
   D11        0.00000   0.00000   0.00000  -0.00000  -0.00000   0.00000
   D12        3.14159  -0.00000   0.00000  -0.00000   0.00000   3.14159
   D13        3.14159   0.00000   0.00000   0.00000   0.00000   3.14159
   D14        0.00000   0.00000   0.00000  -0.00000  -0.00000   0.00000
   D15       -0.00000   0.00000   0.00000   0.00000   0.00000   0.00000
   D16        3.14159   0.00000   0.00000  -0.00000   0.00000   3.14159
   D17        3.14159   0.00000   0.00000   0.00000   0.00000   3.14159
   D18       -0.00000   0.00000   0.00000   0.00000   0.00000   0.00000
   D19        0.00000  -0.00000   0.00000   0.00000  -0.00000   0.00000
   D20        3.14159  -0.00000   0.00000   0.00000   0.00000   3.14159
         Item               Value     Threshold  Converged?
 Maximum Force            0.025036     0.000450     NO 
 RMS     Force            0.007739     0.000300     NO 
 Maximum Displacement     0.059191     0.001800     NO 
 RMS     Displacement     0.019442     0.001200     NO 
 Predicted change in Energy=-3.742455D-03
 GradGradGradGradGradGradGradGradGradGradGradGradGradGradGradGradGradGrad

                          Input orientation:                          
 ---------------------------------------------------------------------
 Center     Atomic      Atomic             Coordinates (Angstroms)
 Number     Number       Type             X           Y           Z
 ---------------------------------------------------------------------
      1          6           0       -3.165687    0.182517   -0.000000
      2          6           0       -1.960898    0.905788    0.000000
      3          6           0       -0.742930    0.231188    0.000000
      4          6           0       -0.695484   -1.156871    0.000000
      5          6           0       -1.877107   -1.906232   -0.000000
      6          6           0       -3.032368   -1.180834   -0.000000
      7         17           0       -4.701845    0.937773   -0.000000
      8         17           0       -1.969201    2.623548    0.000000
      9          1           0        0.176678    0.799911    0.000000
     10         17           0        0.830820   -1.956538    0.000000
     11          1           0       -1.861848   -2.987729   -0.000000
 ---------------------------------------------------------------------
                    Distance matrix (angstroms):
                    1          2          3          4          5
     1  C    0.000000
     2  C    1.405219   0.000000
     3  C    2.423246   1.392311   0.000000
     4  C    2.809958   2.419883   1.388870   0.000000
     5  C    2.454244   2.813268   2.419695   1.399204   0.000000
     6  C    1.369854   2.345643   2.689858   2.337006   1.364122
     7  Cl   1.711781   2.741134   4.021477   4.520892   4.008430
     8  Cl   2.718495   1.717781   2.688331   3.989226   4.530716
     9  H    3.398909   2.140196   1.081261   2.142350   3.397240
    10  Cl   4.532949   3.998323   2.694964   1.723099   2.708394
    11  H    3.427894   3.894777   3.407845   2.170817   1.081605
                    6          7          8          9         10
     6  C    0.000000
     7  Cl   2.697342   0.000000
     8  Cl   3.950146   3.210792   0.000000
     9  H    3.771118   4.880471   2.816105   0.000000
    10  Cl   3.940296   6.243991   5.368175   2.833004   0.000000
    11  H    2.152902   4.845116   5.612304   4.301373   2.883369
                   11
    11  H    0.000000
 Stoichiometry    C6H2Cl3(2)
 Framework group  CS[SG(C6H2Cl3)]
 Deg. of freedom    19
 Full point group                 CS      NOp   2
 Largest Abelian subgroup         CS      NOp   2
 Largest concise Abelian subgroup C1      NOp   1
                         Standard orientation:                         
 ---------------------------------------------------------------------
 Center     Atomic      Atomic             Coordinates (Angstroms)
 Number     Number       Type             X           Y           Z
 ---------------------------------------------------------------------
      1          6           0        1.248768   -0.178317    0.000000
      2          6           0        0.000000   -0.822691    0.000000
      3          6           0       -1.172111   -0.071237    0.000000
      4          6           0       -1.130283    1.317004   -0.000000
      5          6           0        0.097042    1.988902   -0.000000
      6          6           0        1.203313    1.190783   -0.000000
      7         17           0        2.733230   -1.030704    0.000000
      8         17           0       -0.102072   -2.537437    0.000000
      9          1           0       -2.126358   -0.579704    0.000000
     10         17           0       -2.602059    2.213076   -0.000000
     11          1           0        0.151296    3.069146   -0.000000
 ---------------------------------------------------------------------
 Rotational constants (GHZ):           1.9108929           0.5990394           0.4560682
 Standard basis: 6-311++G(d,p) (5D, 7F)
 There are   183 symmetry adapted cartesian basis functions of A'  symmetry.
 There are    62 symmetry adapted cartesian basis functions of A"  symmetry.
 There are   174 symmetry adapted basis functions of A'  symmetry.
 There are    62 symmetry adapted basis functions of A"  symmetry.
   236 basis functions,   393 primitive gaussians,   245 cartesian basis functions
    45 alpha electrons       44 beta electrons
       nuclear repulsion energy       614.3182805807 Hartrees.
 NAtoms=   11 NActive=   11 NUniq=   11 SFac= 1.00D+00 NAtFMM=   60 NAOKFM=F Big=F
 Integral buffers will be    131072 words long.
 Raffenetti 2 integral format.
 Two-electron integral symmetry is turned on.
 One-electron integrals computed using PRISM.
 NBasis=   236 RedAO= T EigKep=  1.02D-06  NBF=   174    62
 NBsUse=   236 1.00D-06 EigRej= -1.00D+00 NBFU=   174    62
 Initial guess from the checkpoint file:  "frequency_chks/_235ClBzNeutralRadical_Freq.chk"
 B after Tr=     0.000000   -0.000000   -0.000000
         Rot=    1.000000   -0.000000    0.000000    0.000634 Ang=   0.07 deg.
 Initial guess orbital symmetries:
 Alpha Orbitals:
       Occupied  (A') (A') (A') (A') (A') (A') (A') (A') (A') (A')
                 (A') (A') (A') (A') (A') (A") (A') (A") (A') (A")
                 (A') (A') (A') (A') (A') (A') (A') (A') (A') (A')
                 (A') (A') (A') (A") (A') (A') (A") (A") (A') (A')
                 (A") (A') (A') (A") (A")
       Virtual   (A") (A") (A') (A') (A') (A') (A') (A") (A') (A')
                 (A") (A') (A") (A') (A') (A') (A") (A') (A") (A')
                 (A') (A') (A") (A') (A") (A') (A') (A") (A') (A")
                 (A') (A') (A') (A") (A') (A') (A') (A') (A') (A')
                 (A') (A') (A') (A') (A') (A') (A') (A') (A') (A')
                 (A') (A') (A") (A') (A") (A') (A") (A') (A') (A')
                 (A') (A") (A') (A") (A') (A") (A") (A') (A") (A')
                 (A') (A') (A") (A') (A') (A') (A') (A") (A') (A')
                 (A") (A') (A') (A') (A") (A') (A") (A") (A') (A')
                 (A") (A') (A') (A') (A') (A') (A") (A') (A') (A")
                 (A') (A") (A') (A') (A') (A') (A') (A") (A") (A')
                 (A") (A') (A') (A') (A') (A") (A') (A") (A') (A')
                 (A") (A') (A') (A") (A') (A') (A") (A") (A') (A')
                 (A") (A') (A') (A') (A") (A") (A") (A') (A") (A')
                 (A') (A') (A') (A') (A') (A') (A') (A') (A") (A')
                 (A') (A') (A") (A") (A") (A") (A') (A") (A') (A')
                 (A') (A') (A') (A') (A') (A') (A') (A') (A') (A')
                 (A') (A') (A') (A') (A') (A') (A') (A') (A') (A")
                 (A") (A") (A') (A') (A') (A') (A') (A') (A') (A')
                 (A')
 Beta  Orbitals:
       Occupied  (A') (A') (A') (A') (A') (A') (A') (A') (A') (A')
                 (A') (A') (A') (A') (A') (A") (A") (A') (A') (A")
                 (A') (A') (A') (A') (A') (A') (A') (A') (A') (A')
                 (A') (A') (A') (A") (A') (A') (A") (A") (A') (A')
                 (A") (A') (A") (A")
       Virtual   (A') (A") (A") (A') (A') (A') (A') (A') (A") (A')
                 (A') (A") (A") (A') (A') (A') (A') (A") (A') (A")
                 (A') (A') (A') (A") (A') (A") (A') (A') (A') (A")
                 (A') (A") (A') (A') (A") (A') (A') (A') (A') (A')
                 (A') (A') (A') (A') (A') (A') (A') (A') (A') (A')
                 (A') (A') (A') (A") (A') (A") (A') (A") (A') (A')
                 (A') (A') (A") (A') (A') (A") (A') (A") (A") (A")
                 (A') (A') (A") (A') (A') (A') (A') (A') (A") (A')
                 (A') (A") (A') (A') (A') (A") (A") (A') (A") (A')
                 (A") (A') (A') (A') (A') (A') (A') (A") (A') (A')
                 (A") (A') (A") (A') (A') (A') (A') (A') (A") (A')
                 (A") (A") (A') (A') (A') (A') (A") (A") (A') (A')
                 (A') (A") (A') (A') (A") (A') (A') (A") (A") (A')
                 (A') (A") (A') (A') (A") (A') (A") (A") (A") (A')
                 (A') (A') (A') (A') (A') (A') (A') (A') (A') (A")
                 (A') (A') (A') (A") (A") (A") (A") (A') (A") (A')
                 (A') (A') (A') (A') (A') (A') (A') (A') (A') (A')
                 (A') (A') (A') (A') (A') (A') (A') (A') (A') (A')
                 (A") (A") (A") (A') (A') (A') (A') (A') (A') (A')
                 (A') (A')
 Initial guess <Sx>= 0.0000 <Sy>= 0.0000 <Sz>= 0.5000 <S**2>= 0.7630 S= 0.5065
 ExpMin= 3.60D-02 ExpMax= 1.06D+05 ExpMxC= 3.62D+03 IAcc=3 IRadAn=         5 AccDes= 0.00D+00
 Harris functional with IExCor= 1009 and IRadAn=       5 diagonalized for initial guess.
 HarFok:  IExCor= 1009 AccDes= 0.00D+00 IRadAn=         5 IDoV= 1 UseB2=F ITyADJ=14
 ICtDFT=  3500011 ScaDFX=  1.000000  1.000000  1.000000  1.000000
 FoFCou: FMM=F IPFlag=           0 FMFlag=      100000 FMFlg1=           0
         NFxFlg=           0 DoJE=T BraDBF=F KetDBF=T FulRan=T
         wScrn=  0.000000 ICntrl=       500 IOpCl=  0 I1Cent=   200000004 NGrid=           0
         NMat0=    1 NMatS0=      1 NMatT0=    0 NMatD0=    1 NMtDS0=    0 NMtDT0=    0
 Petite list used in FoFCou.
 Keep R1 and R2 ints in memory in symmetry-blocked form, NReq=617299900.
 Requested convergence on RMS density matrix=1.00D-08 within 128 cycles.
 Requested convergence on MAX density matrix=1.00D-06.
 Requested convergence on             energy=1.00D-06.
 No special actions if energy rises.
 SCF Done:  E(UM062X) =  -1610.30632323     A.U. after   20 cycles
            NFock= 20  Conv=0.81D-08     -V/T= 2.0023
 <Sx>= 0.0000 <Sy>= 0.0000 <Sz>= 0.5000 <S**2>= 0.7626 S= 0.5063
 <L.S>=  0.00000000000    
 Annihilation of the first spin contaminant:
 S**2 before annihilation     0.7626,   after     0.7501
 Calling FoFJK, ICntrl=      2127 FMM=F ISym2X=1 I1Cent= 0 IOpClX= 1 NMat=1 NMatS=1 NMatT=0.
 ***** Axes restored to original set *****
 -------------------------------------------------------------------
 Center     Atomic                   Forces (Hartrees/Bohr)
 Number     Number              X              Y              Z
 -------------------------------------------------------------------
      1        6           0.012441974   -0.001540011    0.000000000
      2        6          -0.003780728   -0.008295673   -0.000000000
      3        6           0.003368867    0.001679495    0.000000000
      4        6          -0.010157997    0.002827535   -0.000000000
      5        6           0.004162682    0.000198073    0.000000000
      6        6          -0.005412856   -0.000240234   -0.000000000
      7       17          -0.006554167    0.002544651   -0.000000000
      8       17           0.000334874    0.005771556    0.000000000
      9        1           0.000195338    0.000504619    0.000000000
     10       17           0.005159609   -0.002796911    0.000000000
     11        1           0.000242404   -0.000653098    0.000000000
 -------------------------------------------------------------------
 Cartesian Forces:  Max     0.012441974 RMS     0.004009224

 GradGradGradGradGradGradGradGradGradGradGradGradGradGradGradGradGradGrad
 Berny optimization.
 Using GEDIIS/GDIIS optimizer.
 FormGI is forming the generalized inverse of G from B-inverse, IUseBI=4.
 Internal  Forces:  Max     0.007004578 RMS     0.001926620
 Search for a local minimum.
 Step number   2 out of a maximum of   57
 All quantities printed in internal units (Hartrees-Bohrs-Radians)
 Mixed Optimization -- RFO/linear search
 Update second derivatives using D2CorX and points    1    2
 DE= -4.35D-03 DEPred=-3.74D-03 R= 1.16D+00
 TightC=F SS=  1.41D+00  RLast= 1.40D-01 DXNew= 5.0454D-01 4.2004D-01
 Trust test= 1.16D+00 RLast= 1.40D-01 DXMaxT set to 4.20D-01
 ITU=  1  0
 Use linear search instead of GDIIS.
     Eigenvalues ---    0.01893   0.01935   0.01950   0.01970   0.02001
     Eigenvalues ---    0.02024   0.02116   0.02371   0.15965   0.16008
     Eigenvalues ---    0.21303   0.23752   0.24405   0.25000   0.25000
     Eigenvalues ---    0.25036   0.31725   0.33701   0.35068   0.37218
     Eigenvalues ---    0.38127   0.40080   0.42582   0.43065   0.44323
     Eigenvalues ---    0.49391   0.51281
 RFO step:  Lambda=-3.77959606D-04 EMin= 1.89330867D-02
 Quartic linear search produced a step of  0.24292.
 Iteration  1 RMS(Cart)=  0.00603707 RMS(Int)=  0.00003278
 Iteration  2 RMS(Cart)=  0.00004315 RMS(Int)=  0.00000827
 Iteration  3 RMS(Cart)=  0.00000000 RMS(Int)=  0.00000827
 ClnCor:  largest displacement from symmetrization is 3.65D-09 for atom     9.
 Variable       Old X    -DE/DX   Delta X   Delta X   Delta X     New X
                                 (Linear)    (Quad)   (Total)
    R1        2.65548  -0.00272  -0.00703  -0.00262  -0.00964   2.64584
    R2        2.58865   0.00007  -0.00303   0.00252  -0.00050   2.58815
    R3        3.23480   0.00700   0.01544   0.01033   0.02577   3.26056
    R4        2.63109  -0.00035  -0.00667   0.00418  -0.00249   2.62859
    R5        3.24613   0.00577   0.01362   0.00844   0.02206   3.26819
    R6        2.62458   0.00019  -0.00808   0.00697  -0.00112   2.62347
    R7        2.04329   0.00043  -0.00965   0.00921  -0.00044   2.04284
    R8        2.64411  -0.00159  -0.00719   0.00129  -0.00591   2.63821
    R9        3.25619   0.00587   0.01500   0.00784   0.02283   3.27902
   R10        2.57782   0.00204  -0.00151   0.00618   0.00469   2.58250
   R11        2.04394   0.00066  -0.00721   0.00808   0.00087   2.04481
    A1        2.01398   0.00259   0.00386   0.00962   0.01349   2.02747
    A2        2.14398  -0.00032  -0.00160  -0.00020  -0.00181   2.14217
    A3        2.12522  -0.00228  -0.00226  -0.00942  -0.01168   2.11354
    A4        2.09512   0.00074   0.00070   0.00290   0.00359   2.09871
    A5        2.10662   0.00022  -0.00018   0.00136   0.00118   2.10780
    A6        2.08144  -0.00096  -0.00052  -0.00426  -0.00477   2.07667
    A7        2.11078  -0.00254  -0.00068  -0.01353  -0.01424   2.09654
    A8        2.08191   0.00094  -0.00008   0.00452   0.00446   2.08637
    A9        2.09050   0.00160   0.00076   0.00901   0.00978   2.10028
   A10        2.10180   0.00245   0.00006   0.01282   0.01286   2.11467
   A11        2.08757  -0.00109  -0.00080  -0.00512  -0.00591   2.08166
   A12        2.09382  -0.00136   0.00074  -0.00771  -0.00695   2.08686
   A13        2.01573  -0.00005   0.00462  -0.00309   0.00154   2.01727
   A14        2.12186  -0.00021  -0.00453   0.00146  -0.00308   2.11879
   A15        2.14559   0.00026  -0.00009   0.00163   0.00154   2.14713
   A16        2.22896  -0.00320  -0.00856  -0.00871  -0.01724   2.21172
    D1        0.00000   0.00000   0.00000  -0.00000  -0.00000   0.00000
    D2        3.14159  -0.00000   0.00000  -0.00000   0.00000   3.14159
    D3        3.14159   0.00000   0.00000  -0.00000   0.00000   3.14159
    D4        0.00000   0.00000   0.00000  -0.00000   0.00000   0.00000
    D5        0.00000  -0.00000   0.00000  -0.00000  -0.00000   0.00000
    D6        3.14159  -0.00000   0.00000   0.00000   0.00000   3.14159
    D7        0.00000   0.00000   0.00000   0.00000   0.00000   0.00000
    D8        3.14159   0.00000   0.00000   0.00000   0.00000   3.14159
    D9        3.14159   0.00000   0.00000   0.00000   0.00000   3.14159
   D10       -0.00000   0.00000   0.00000   0.00000   0.00000   0.00000
   D11       -0.00000  -0.00000   0.00000  -0.00000   0.00000   0.00000
   D12        3.14159  -0.00000   0.00000  -0.00000   0.00000   3.14159
   D13        3.14159  -0.00000   0.00000  -0.00000   0.00000   3.14159
   D14        0.00000  -0.00000   0.00000  -0.00000   0.00000   0.00000
   D15        0.00000   0.00000   0.00000  -0.00000   0.00000   0.00000
   D16        3.14159  -0.00000   0.00000  -0.00000   0.00000   3.14159
   D17        3.14159   0.00000   0.00000   0.00000   0.00000   3.14159
   D18       -0.00000   0.00000   0.00000  -0.00000   0.00000   0.00000
   D19       -0.00000  -0.00000   0.00000   0.00000   0.00000   0.00000
   D20        3.14159  -0.00000   0.00000   0.00000   0.00000   3.14159
         Item               Value     Threshold  Converged?
 Maximum Force            0.007005     0.000450     NO 
 RMS     Force            0.001927     0.000300     NO 
 Maximum Displacement     0.015643     0.001800     NO 
 RMS     Displacement     0.006032     0.001200     NO 
 Predicted change in Energy=-3.533617D-04
 GradGradGradGradGradGradGradGradGradGradGradGradGradGradGradGradGradGrad

                          Input orientation:                          
 ---------------------------------------------------------------------
 Center     Atomic      Atomic             Coordinates (Angstroms)
 Number     Number       Type             X           Y           Z
 ---------------------------------------------------------------------
      1          6           0       -3.158292    0.178464   -0.000000
      2          6           0       -1.959333    0.901533    0.000000
      3          6           0       -0.738757    0.234411    0.000000
      4          6           0       -0.703305   -1.153414    0.000000
      5          6           0       -1.879109   -1.906088   -0.000000
      6          6           0       -3.040646   -1.186063   -0.000000
      7         17           0       -4.706846    0.939414   -0.000000
      8         17           0       -1.969149    2.630958    0.000000
      9          1           0        0.179995    0.804072    0.000000
     10         17           0        0.831506   -1.962862    0.000000
     11          1           0       -1.855934   -2.987905   -0.000000
 ---------------------------------------------------------------------
                    Distance matrix (angstroms):
                    1          2          3          4          5
     1  C    0.000000
     2  C    1.400118   0.000000
     3  C    2.420182   1.390991   0.000000
     4  C    2.793003   2.408405   1.388278   0.000000
     5  C    2.445745   2.808767   2.425312   1.396078   0.000000
     6  C    1.369590   2.351020   2.704891   2.337569   1.366602
     7  Cl   1.725417   2.747774   4.030230   4.517551   4.011605
     8  Cl   2.725581   1.729454   2.693938   3.990468   4.537940
     9  H    3.396402   2.141547   1.081027   2.147550   3.403656
    10  Cl   4.528109   3.999193   2.700692   1.735180   2.711210
    11  H    3.423745   3.890812   3.410485   2.166544   1.082065
                    6          7          8          9         10
     6  C    0.000000
     7  Cl   2.700717   0.000000
     8  Cl   3.964563   3.218122   0.000000
     9  H    3.785916   4.888715   2.820697   0.000000
    10  Cl   3.949301   6.252724   5.380228   2.842603   0.000000
    11  H    2.156427   4.852992   5.620004   4.303963   2.876291
                   11
    11  H    0.000000
 Stoichiometry    C6H2Cl3(2)
 Framework group  CS[SG(C6H2Cl3)]
 Deg. of freedom    19
 Full point group                 CS      NOp   2
 Largest Abelian subgroup         CS      NOp   2
 Largest concise Abelian subgroup C1      NOp   1
                         Standard orientation:                         
 ---------------------------------------------------------------------
 Center     Atomic      Atomic             Coordinates (Angstroms)
 Number     Number       Type             X           Y           Z
 ---------------------------------------------------------------------
      1          6           0        1.241101   -0.170093    0.000000
      2          6           0        0.000000   -0.818168    0.000000
      3          6           0       -1.177303   -0.077349    0.000000
      4          6           0       -1.127462    1.310034    0.000000
      5          6           0        0.092346    1.989080    0.000000
      6          6           0        1.207473    1.199084    0.000000
      7         17           0        2.740001   -1.024704    0.000000
      8         17           0       -0.096408   -2.544932    0.000000
      9          1           0       -2.129305   -0.589514    0.000000
     10         17           0       -2.609668    2.212208    0.000000
     11          1           0        0.135650    3.070279    0.000000
 ---------------------------------------------------------------------
 Rotational constants (GHZ):           1.9011934           0.5976568           0.4547136
 Standard basis: 6-311++G(d,p) (5D, 7F)
 There are   183 symmetry adapted cartesian basis functions of A'  symmetry.
 There are    62 symmetry adapted cartesian basis functions of A"  symmetry.
 There are   174 symmetry adapted basis functions of A'  symmetry.
 There are    62 symmetry adapted basis functions of A"  symmetry.
   236 basis functions,   393 primitive gaussians,   245 cartesian basis functions
    45 alpha electrons       44 beta electrons
       nuclear repulsion energy       613.1778394349 Hartrees.
 NAtoms=   11 NActive=   11 NUniq=   11 SFac= 1.00D+00 NAtFMM=   60 NAOKFM=F Big=F
 Integral buffers will be    131072 words long.
 Raffenetti 2 integral format.
 Two-electron integral symmetry is turned on.
 One-electron integrals computed using PRISM.
 NBasis=   236 RedAO= T EigKep=  1.04D-06  NBF=   174    62
 NBsUse=   236 1.00D-06 EigRej= -1.00D+00 NBFU=   174    62
 Initial guess from the checkpoint file:  "frequency_chks/_235ClBzNeutralRadical_Freq.chk"
 B after Tr=    -0.000000    0.000000    0.000000
         Rot=    0.999999   -0.000000    0.000000   -0.001140 Ang=  -0.13 deg.
 Initial guess orbital symmetries:
 Alpha Orbitals:
       Occupied  (A') (A') (A') (A') (A') (A') (A') (A') (A') (A')
                 (A') (A') (A') (A') (A') (A") (A') (A") (A') (A")
                 (A') (A') (A') (A') (A') (A') (A') (A') (A') (A')
                 (A') (A') (A') (A") (A') (A') (A") (A") (A') (A')
                 (A") (A') (A') (A") (A")
       Virtual   (A") (A") (A') (A') (A') (A') (A') (A") (A') (A')
                 (A') (A") (A") (A') (A') (A') (A") (A') (A") (A')
                 (A') (A') (A") (A') (A") (A') (A') (A") (A') (A')
                 (A") (A') (A') (A") (A') (A') (A') (A') (A') (A')
                 (A') (A') (A') (A') (A') (A') (A') (A') (A') (A')
                 (A') (A') (A") (A') (A") (A') (A') (A") (A') (A')
                 (A') (A") (A') (A") (A') (A") (A") (A') (A") (A')
                 (A') (A') (A") (A') (A') (A') (A') (A") (A') (A')
                 (A") (A') (A') (A') (A") (A') (A") (A") (A') (A')
                 (A") (A') (A') (A') (A') (A') (A") (A') (A') (A')
                 (A") (A") (A') (A') (A') (A') (A') (A") (A") (A')
                 (A") (A') (A') (A') (A') (A") (A') (A") (A') (A')
                 (A") (A') (A') (A") (A') (A') (A") (A") (A') (A')
                 (A") (A') (A') (A') (A") (A") (A") (A') (A") (A')
                 (A') (A') (A') (A') (A') (A') (A') (A') (A") (A')
                 (A') (A') (A") (A") (A") (A") (A') (A") (A') (A')
                 (A') (A') (A') (A') (A') (A') (A') (A') (A') (A')
                 (A') (A') (A') (A') (A') (A') (A') (A') (A') (A")
                 (A") (A") (A') (A') (A') (A') (A') (A') (A') (A')
                 (A')
 Beta  Orbitals:
       Occupied  (A') (A') (A') (A') (A') (A') (A') (A') (A') (A')
                 (A') (A') (A') (A') (A') (A") (A') (A") (A') (A")
                 (A') (A') (A') (A') (A') (A') (A') (A') (A') (A')
                 (A') (A') (A') (A") (A') (A') (A") (A") (A') (A')
                 (A") (A') (A") (A")
       Virtual   (A') (A") (A") (A') (A') (A') (A') (A') (A") (A')
                 (A') (A") (A") (A') (A') (A') (A') (A") (A') (A")
                 (A') (A') (A') (A") (A') (A") (A') (A') (A') (A")
                 (A') (A") (A') (A') (A") (A') (A') (A') (A') (A')
                 (A') (A') (A') (A') (A') (A') (A') (A') (A') (A')
                 (A') (A') (A') (A") (A') (A") (A') (A') (A") (A')
                 (A') (A') (A") (A') (A') (A") (A") (A') (A") (A")
                 (A') (A') (A") (A') (A') (A') (A') (A') (A") (A')
                 (A') (A") (A') (A') (A') (A") (A') (A") (A") (A')
                 (A') (A') (A") (A') (A') (A') (A') (A") (A') (A')
                 (A') (A") (A") (A') (A') (A') (A') (A') (A") (A")
                 (A') (A") (A') (A') (A') (A') (A") (A') (A") (A')
                 (A') (A") (A') (A') (A") (A') (A') (A") (A") (A')
                 (A') (A") (A') (A') (A") (A') (A") (A") (A') (A")
                 (A') (A') (A') (A') (A') (A') (A') (A') (A') (A")
                 (A') (A') (A') (A") (A") (A") (A") (A') (A") (A')
                 (A') (A') (A') (A') (A') (A') (A') (A') (A') (A')
                 (A') (A') (A') (A') (A') (A') (A') (A') (A') (A')
                 (A") (A") (A") (A') (A') (A') (A') (A') (A') (A')
                 (A') (A')
 Initial guess <Sx>= 0.0000 <Sy>= 0.0000 <Sz>= 0.5000 <S**2>= 0.7627 S= 0.5063
 Keep R1 and R2 ints in memory in symmetry-blocked form, NReq=617299900.
 Requested convergence on RMS density matrix=1.00D-08 within 128 cycles.
 Requested convergence on MAX density matrix=1.00D-06.
 Requested convergence on             energy=1.00D-06.
 No special actions if energy rises.
 SCF Done:  E(UM062X) =  -1610.30673056     A.U. after   21 cycles
            NFock= 21  Conv=0.75D-08     -V/T= 2.0023
 <Sx>= 0.0000 <Sy>= 0.0000 <Sz>= 0.5000 <S**2>= 0.7628 S= 0.5064
 <L.S>=  0.00000000000    
 Annihilation of the first spin contaminant:
 S**2 before annihilation     0.7628,   after     0.7501
 Calling FoFJK, ICntrl=      2127 FMM=F ISym2X=1 I1Cent= 0 IOpClX= 1 NMat=1 NMatS=1 NMatT=0.
 ***** Axes restored to original set *****
 -------------------------------------------------------------------
 Center     Atomic                   Forces (Hartrees/Bohr)
 Number     Number              X              Y              Z
 -------------------------------------------------------------------
      1        6           0.001914937    0.000319637    0.000000000
      2        6          -0.001597666   -0.000424095   -0.000000000
      3        6           0.001460683    0.000322096    0.000000000
      4        6          -0.001943907    0.000516294   -0.000000000
      5        6           0.001081926   -0.000860613    0.000000000
      6        6          -0.001188313    0.000347055   -0.000000000
      7       17          -0.000898485    0.000169924   -0.000000000
      8       17           0.000018532    0.000241603    0.000000000
      9        1           0.000307176    0.000103139    0.000000000
     10       17           0.000763011   -0.000469883    0.000000000
     11        1           0.000082105   -0.000265158    0.000000000
 -------------------------------------------------------------------
 Cartesian Forces:  Max     0.001943907 RMS     0.000740758

 GradGradGradGradGradGradGradGradGradGradGradGradGradGradGradGradGradGrad
 Berny optimization.
 Using GEDIIS/GDIIS optimizer.
 FormGI is forming the generalized inverse of G from B-inverse, IUseBI=4.
 Internal  Forces:  Max     0.000934171 RMS     0.000374697
 Search for a local minimum.
 Step number   3 out of a maximum of   57
 All quantities printed in internal units (Hartrees-Bohrs-Radians)
 Mixed Optimization -- En-DIIS/RFO-DIIS
 Update second derivatives using D2CorX and points    1    2    3
 DE= -4.07D-04 DEPred=-3.53D-04 R= 1.15D+00
 TightC=F SS=  1.41D+00  RLast= 5.54D-02 DXNew= 7.0642D-01 1.6616D-01
 Trust test= 1.15D+00 RLast= 5.54D-02 DXMaxT set to 4.20D-01
 ITU=  1  1  0
 Use linear search instead of GDIIS.
     Eigenvalues ---    0.01893   0.01935   0.01949   0.01969   0.02001
     Eigenvalues ---    0.02023   0.02117   0.02368   0.15884   0.16020
     Eigenvalues ---    0.18430   0.23635   0.24405   0.25000   0.25014
     Eigenvalues ---    0.25047   0.31452   0.33706   0.35191   0.37337
     Eigenvalues ---    0.38087   0.40048   0.42602   0.43362   0.44385
     Eigenvalues ---    0.49531   0.51620
 RFO step:  Lambda=-1.04793962D-05 EMin= 1.89300622D-02
 Quartic linear search produced a step of  0.16996.
 Iteration  1 RMS(Cart)=  0.00158740 RMS(Int)=  0.00000185
 Iteration  2 RMS(Cart)=  0.00000272 RMS(Int)=  0.00000031
 Iteration  3 RMS(Cart)=  0.00000000 RMS(Int)=  0.00000031
 ClnCor:  largest displacement from symmetrization is 6.26D-11 for atom     9.
 Variable       Old X    -DE/DX   Delta X   Delta X   Delta X     New X
                                 (Linear)    (Quad)   (Total)
    R1        2.64584  -0.00056  -0.00164  -0.00064  -0.00228   2.64356
    R2        2.58815   0.00024  -0.00008   0.00041   0.00032   2.58847
    R3        3.26056   0.00088   0.00438  -0.00008   0.00430   3.26486
    R4        2.62859   0.00093  -0.00042   0.00239   0.00197   2.63056
    R5        3.26819   0.00024   0.00375  -0.00155   0.00220   3.27039
    R6        2.62347   0.00044  -0.00019   0.00088   0.00069   2.62416
    R7        2.04284   0.00032  -0.00008   0.00061   0.00053   2.04337
    R8        2.63821  -0.00012  -0.00100   0.00016  -0.00085   2.63736
    R9        3.27902   0.00089   0.00388   0.00046   0.00434   3.28335
   R10        2.58250   0.00092   0.00080   0.00134   0.00214   2.58464
   R11        2.04481   0.00027   0.00015   0.00038   0.00053   2.04533
    A1        2.02747   0.00047   0.00229   0.00043   0.00273   2.03020
    A2        2.14217   0.00015  -0.00031   0.00092   0.00061   2.14278
    A3        2.11354  -0.00062  -0.00199  -0.00135  -0.00334   2.11020
    A4        2.09871   0.00008   0.00061  -0.00008   0.00053   2.09924
    A5        2.10780  -0.00000   0.00020  -0.00017   0.00003   2.10783
    A6        2.07667  -0.00008  -0.00081   0.00026  -0.00056   2.07612
    A7        2.09654  -0.00066  -0.00242  -0.00135  -0.00377   2.09276
    A8        2.08637   0.00041   0.00076   0.00159   0.00235   2.08872
    A9        2.10028   0.00025   0.00166  -0.00024   0.00143   2.10171
   A10        2.11467   0.00075   0.00219   0.00198   0.00417   2.11883
   A11        2.08166  -0.00027  -0.00100  -0.00062  -0.00162   2.08003
   A12        2.08686  -0.00048  -0.00118  -0.00137  -0.00255   2.08432
   A13        2.01727  -0.00040   0.00026  -0.00180  -0.00154   2.01573
   A14        2.11879   0.00013  -0.00052   0.00055   0.00003   2.11882
   A15        2.14713   0.00027   0.00026   0.00125   0.00151   2.14864
   A16        2.21172  -0.00024  -0.00293   0.00082  -0.00211   2.20961
    D1        0.00000  -0.00000   0.00000  -0.00000   0.00000   0.00000
    D2        3.14159  -0.00000   0.00000  -0.00000   0.00000   3.14159
    D3        3.14159  -0.00000   0.00000  -0.00000   0.00000   3.14159
    D4       -0.00000   0.00000   0.00000   0.00000   0.00000   0.00000
    D5       -0.00000  -0.00000   0.00000   0.00000   0.00000   0.00000
    D6        3.14159  -0.00000   0.00000  -0.00000   0.00000   3.14159
    D7       -0.00000   0.00000   0.00000   0.00000   0.00000   0.00000
    D8        3.14159  -0.00000   0.00000  -0.00000   0.00000   3.14159
    D9        3.14159   0.00000   0.00000  -0.00000   0.00000   3.14159
   D10        0.00000   0.00000   0.00000  -0.00000   0.00000   0.00000
   D11       -0.00000   0.00000   0.00000   0.00000   0.00000   0.00000
   D12        3.14159  -0.00000   0.00000   0.00000   0.00000   3.14159
   D13        3.14159  -0.00000   0.00000   0.00000   0.00000   3.14159
   D14        0.00000   0.00000   0.00000   0.00000  -0.00000   0.00000
   D15        0.00000  -0.00000   0.00000  -0.00000  -0.00000   0.00000
   D16        3.14159   0.00000   0.00000   0.00000   0.00000   3.14159
   D17        3.14159   0.00000   0.00000  -0.00000   0.00000   3.14159
[...]
      6        6          -0.000038562    0.000045962   -0.000000000
      7       17           0.000017940   -0.000087749    0.000000000
      8       17           0.000009726   -0.000303443   -0.000000000
      9        1           0.000040910   -0.000005928    0.000000000
     10       17           0.000104327   -0.000056261    0.000000000
     11        1           0.000012505   -0.000005871    0.000000000
 -------------------------------------------------------------------
 Cartesian Forces:  Max     0.000372211 RMS     0.000133607
 FormGI is forming the generalized inverse of G from B-inverse, IUseBI=4.

 GradGradGradGradGradGradGradGradGradGradGradGradGradGradGradGradGradGrad
 Berny optimization.
 Internal  Forces:  Max     0.000303097 RMS     0.000074787
 Search for a local minimum.
 Step number   1 out of a maximum of    2
 All quantities printed in internal units (Hartrees-Bohrs-Radians)
 Second derivative matrix not updated -- analytic derivatives used.
 ITU=  0
     Eigenvalues ---    0.01594   0.01793   0.01897   0.02369   0.02740
     Eigenvalues ---    0.02978   0.03373   0.03641   0.10557   0.11405
     Eigenvalues ---    0.15260   0.16262   0.17152   0.17907   0.18921
     Eigenvalues ---    0.21468   0.25001   0.27464   0.29119   0.30869
     Eigenvalues ---    0.36741   0.37194   0.43138   0.44312   0.48145
     Eigenvalues ---    0.49505   0.52777
 Angle between quadratic step and forces=  15.27 degrees.
 Linear search not attempted -- first point.
 Iteration  1 RMS(Cart)=  0.00043834 RMS(Int)=  0.00000015
 Iteration  2 RMS(Cart)=  0.00000020 RMS(Int)=  0.00000002
 ClnCor:  largest displacement from symmetrization is 7.62D-11 for atom    11.
 Variable       Old X    -DE/DX   Delta X   Delta X   Delta X     New X
                                 (Linear)    (Quad)   (Total)
    R1        2.64356  -0.00002   0.00000  -0.00020  -0.00020   2.64336
    R2        2.58847   0.00005   0.00000   0.00015   0.00015   2.58863
    R3        3.26486  -0.00005   0.00000  -0.00005  -0.00005   3.26482
    R4        2.63056   0.00012   0.00000   0.00049   0.00049   2.63105
    R5        3.27039  -0.00030   0.00000  -0.00138  -0.00138   3.26901
    R6        2.62416  -0.00004   0.00000  -0.00029  -0.00029   2.62387
    R7        2.04337   0.00003   0.00000   0.00006   0.00006   2.04344
    R8        2.63736   0.00009   0.00000   0.00027   0.00027   2.63763
    R9        3.28335   0.00012   0.00000   0.00082   0.00082   3.28418
   R10        2.58464   0.00003   0.00000   0.00003   0.00003   2.58467
   R11        2.04533   0.00001   0.00000  -0.00005  -0.00005   2.04528
    A1        2.03020   0.00008   0.00000   0.00062   0.00062   2.03081
    A2        2.14278   0.00007   0.00000   0.00030   0.00030   2.14309
    A3        2.11020  -0.00015   0.00000  -0.00092  -0.00092   2.10928
    A4        2.09924  -0.00006   0.00000  -0.00057  -0.00057   2.09867
    A5        2.10783   0.00005   0.00000   0.00034   0.00034   2.10817
    A6        2.07612   0.00001   0.00000   0.00023   0.00023   2.07635
    A7        2.09276  -0.00006   0.00000  -0.00028  -0.00028   2.09248
    A8        2.08872   0.00006   0.00000   0.00042   0.00042   2.08914
    A9        2.10171   0.00000   0.00000  -0.00014  -0.00014   2.10156
   A10        2.11883   0.00017   0.00000   0.00106   0.00106   2.11989
   A11        2.08003  -0.00007   0.00000  -0.00043  -0.00043   2.07960
   A12        2.08432  -0.00009   0.00000  -0.00063  -0.00063   2.08369
   A13        2.01573  -0.00015   0.00000  -0.00099  -0.00099   2.01474
   A14        2.11882   0.00007   0.00000   0.00029   0.00029   2.11910
   A15        2.14864   0.00008   0.00000   0.00070   0.00070   2.14934
   A16        2.20961   0.00003   0.00000   0.00017   0.00017   2.20977
    D1        0.00000  -0.00000   0.00000   0.00000  -0.00000   0.00000
    D2        3.14159  -0.00000   0.00000   0.00000   0.00000   3.14159
    D3        3.14159  -0.00000   0.00000   0.00000   0.00000   3.14159
    D4       -0.00000   0.00000   0.00000   0.00000   0.00000   0.00000
    D5       -0.00000  -0.00000   0.00000  -0.00000   0.00000   0.00000
    D6        3.14159   0.00000   0.00000  -0.00000   0.00000   3.14159
    D7        0.00000   0.00000   0.00000   0.00000   0.00000   0.00000
    D8        3.14159   0.00000   0.00000   0.00000   0.00000   3.14159
    D9        3.14159   0.00000   0.00000  -0.00000   0.00000   3.14159
   D10        0.00000   0.00000   0.00000   0.00000   0.00000   0.00000
   D11       -0.00000   0.00000   0.00000  -0.00000   0.00000   0.00000
   D12        3.14159  -0.00000   0.00000  -0.00000   0.00000   3.14159
   D13        3.14159   0.00000   0.00000  -0.00000   0.00000   3.14159
   D14        0.00000   0.00000   0.00000  -0.00000   0.00000   0.00000
   D15        0.00000  -0.00000   0.00000   0.00000   0.00000   0.00000
   D16        3.14159  -0.00000   0.00000   0.00000   0.00000   3.14159
   D17        3.14159  -0.00000   0.00000   0.00000   0.00000   3.14159
   D18       -0.00000  -0.00000   0.00000   0.00000   0.00000   0.00000
   D19        0.00000   0.00000   0.00000   0.00000  -0.00000   0.00000
   D20        3.14159   0.00000   0.00000  -0.00000   0.00000   3.14159
         Item               Value     Threshold  Converged?
 Maximum Force            0.000303     0.000450     YES
 RMS     Force            0.000075     0.000300     YES
 Maximum Displacement     0.001443     0.001800     YES
 RMS     Displacement     0.000438     0.001200     YES
 Predicted change in Energy=-7.180528D-07
 Optimization completed.
    -- Stationary point found.
                           ----------------------------
                           !   Optimized Parameters   !
                           ! (Angstroms and Degrees)  !
 --------------------------                            --------------------------
 ! Name  Definition              Value          Derivative Info.                !
 --------------------------------------------------------------------------------
 ! R1    R(1,2)                  1.3989         -DE/DX =    0.0                 !
 ! R2    R(1,6)                  1.3698         -DE/DX =    0.0                 !
 ! R3    R(1,7)                  1.7277         -DE/DX =   -0.0001              !
 ! R4    R(2,3)                  1.392          -DE/DX =    0.0001              !
 ! R5    R(2,8)                  1.7306         -DE/DX =   -0.0003              !
 ! R6    R(3,4)                  1.3886         -DE/DX =    0.0                 !
 ! R7    R(3,9)                  1.0813         -DE/DX =    0.0                 !
 ! R8    R(4,5)                  1.3956         -DE/DX =    0.0001              !
 ! R9    R(4,10)                 1.7375         -DE/DX =    0.0001              !
 ! R10   R(5,6)                  1.3677         -DE/DX =    0.0                 !
 ! R11   R(5,11)                 1.0823         -DE/DX =    0.0                 !
 ! A1    A(2,1,6)              116.3218         -DE/DX =    0.0001              !
 ! A2    A(2,1,7)              122.7725         -DE/DX =    0.0001              !
 ! A3    A(6,1,7)              120.9058         -DE/DX =   -0.0001              !
 ! A4    A(1,2,3)              120.2776         -DE/DX =   -0.0001              !
 ! A5    A(1,2,8)              120.7697         -DE/DX =    0.0001              !
 ! A6    A(3,2,8)              118.9528         -DE/DX =    0.0                 !
 ! A7    A(2,3,4)              119.9065         -DE/DX =   -0.0001              !
 ! A8    A(2,3,9)              119.6746         -DE/DX =    0.0001              !
 ! A9    A(4,3,9)              120.4189         -DE/DX =    0.0                 !
 ! A10   A(3,4,5)              121.4003         -DE/DX =    0.0002              !
 ! A11   A(3,4,10)             119.1772         -DE/DX =   -0.0001              !
 ! A12   A(5,4,10)             119.4225         -DE/DX =   -0.0001              !
 ! A13   A(4,5,6)              115.4927         -DE/DX =   -0.0002              !
 ! A14   A(4,5,11)             121.3992         -DE/DX =    0.0001              !
 ! A15   A(6,5,11)             123.1081         -DE/DX =    0.0001              !
 ! A16   A(1,6,5)              126.6012         -DE/DX =    0.0                 !
 ! D1    D(6,1,2,3)              0.0            -DE/DX =    0.0                 !
 ! D2    D(6,1,2,8)            180.0            -DE/DX =    0.0                 !
 ! D3    D(7,1,2,3)            180.0            -DE/DX =    0.0                 !
 ! D4    D(7,1,2,8)              0.0            -DE/DX =    0.0                 !
 ! D5    D(2,1,6,5)              0.0            -DE/DX =    0.0                 !
 ! D6    D(7,1,6,5)            180.0            -DE/DX =    0.0                 !
 ! D7    D(1,2,3,4)              0.0            -DE/DX =    0.0                 !
 ! D8    D(1,2,3,9)            180.0            -DE/DX =    0.0                 !
 ! D9    D(8,2,3,4)            180.0            -DE/DX =    0.0                 !
 ! D10   D(8,2,3,9)              0.0            -DE/DX =    0.0                 !
 ! D11   D(2,3,4,5)              0.0            -DE/DX =    0.0                 !
 ! D12   D(2,3,4,10)           180.0            -DE/DX =    0.0                 !
 ! D13   D(9,3,4,5)            180.0            -DE/DX =    0.0                 !
 ! D14   D(9,3,4,10)             0.0            -DE/DX =    0.0                 !
 ! D15   D(3,4,5,6)              0.0            -DE/DX =    0.0                 !
 ! D16   D(3,4,5,11)           180.0            -DE/DX =    0.0                 !
 ! D17   D(10,4,5,6)           180.0            -DE/DX =    0.0                 !
 ! D18   D(10,4,5,11)            0.0            -DE/DX =    0.0                 !
 ! D19   D(4,5,6,1)              0.0            -DE/DX =    0.0                 !
 ! D20   D(11,5,6,1)           180.0            -DE/DX =    0.0                 !
 --------------------------------------------------------------------------------
 GradGradGradGradGradGradGradGradGradGradGradGradGradGradGradGradGradGrad


 ----------------------------------------------------------------------

 Electric dipole moment (input orientation):
 (Debye = 10**-18 statcoulomb cm , SI units = C m)
                  (au)            (Debye)         (10**-30 SI)
   Tot        0.405188D+00      0.102988D+01      0.343533D+01
   x          0.219515D+00      0.557952D+00      0.186113D+01
   y         -0.340573D+00     -0.865651D+00     -0.288750D+01
   z          0.000000D+00      0.000000D+00      0.000000D+00

 Dipole polarizability, Alpha (input orientation).
 (esu units = cm**3 , SI units = C**2 m**2 J**-1)
 Alpha(0;0):
               (au)            (10**-24 esu)      (10**-40 SI)
   iso        0.101987D+03      0.151129D+02      0.168154D+02
   aniso      0.789039D+02      0.116924D+02      0.130095D+02
   xx         0.127067D+03      0.188294D+02      0.209505D+02
   yx        -0.213637D+02     -0.316577D+01     -0.352240D+01
   yy         0.123317D+03      0.182737D+02      0.203322D+02
   zx         0.000000D+00      0.000000D+00      0.000000D+00
   zy         0.000000D+00      0.000000D+00      0.000000D+00
   zz         0.555781D+02      0.823582D+01      0.916359D+01

 ----------------------------------------------------------------------

 Dipole orientation:
     6         -4.06087177         -2.61741650         -3.51567307
     6         -1.83982369         -1.18585003         -3.43847993
     6         -0.78125703         -0.50355568         -1.12898581
     6         -1.93337361         -1.24614720          1.10873538
     6         -4.15015561         -2.67496399          1.10464187
     6         -5.08213450         -3.27566677         -1.23008223
    17         -5.47831976         -3.53102618         -6.31129318
    17         -0.36516646         -0.23536638         -6.19844651
     1          0.93596562          0.60327240         -1.09081612
    17         -0.58138165         -0.37472691          3.97110324
     1         -5.04811401         -3.25373901          2.84879618

 Electric dipole moment (dipole orientation):
 (Debye = 10**-18 statcoulomb cm , SI units = C m)
                  (au)            (Debye)         (10**-30 SI)
   Tot        0.405188D+00      0.102988D+01      0.343533D+01
   x          0.000000D+00      0.000000D+00      0.000000D+00
   y          0.000000D+00      0.000000D+00      0.000000D+00
   z          0.405188D+00      0.102988D+01      0.343533D+01

 Dipole polarizability, Alpha (dipole orientation).
 (esu units = cm**3 , SI units = C**2 m**2 J**-1)
 Alpha(0;0):
               (au)            (10**-24 esu)      (10**-40 SI)
   iso        0.101987D+03      0.151129D+02      0.168154D+02
   aniso      0.789039D+02      0.116924D+02      0.130095D+02
   xx         0.915608D+02      0.135679D+02      0.150963D+02
   yx         0.231925D+02      0.343677D+01      0.382393D+01
   yy         0.705267D+02      0.104510D+02      0.116283D+02
   zx         0.885135D+01      0.131163D+01      0.145939D+01
   zy         0.570509D+01      0.845408D+00      0.940643D+00
   zz         0.143874D+03      0.213199D+02      0.237216D+02

 ----------------------------------------------------------------------
 1\1\GINC-SH02-08N49\Freq\UM062X\6-311++G(d,p)\C6H2Cl3(2)\JLAPIER\09-De
 c-2025\0\\#N Geom=AllCheck Guess=TCheck SCRF=Check GenChk UM062X/6-311
 ++G(d,p) Freq\\Neutral Radical (removed 1) _235\\0,2\C,-3.1568212002,0
 .1786610789,0.\C,-1.9593628428,0.9018786534,0.\C,-0.7370898168,0.23569
 2054,0.\C,-0.7052364039,-1.1525877459,0.\C,-1.8794804769,-1.9068642796
 ,0.\C,-3.0419992687,-1.1862792214,0.\Cl,-4.7083724096,0.9386651274,0.\
 Cl,-1.9702564467,2.6324600553,0.\H,0.182568059,0.8044227325,0.\Cl,0.83
 08127321,-1.9646062319,0.\H,-1.8546319256,-2.9889222227,0.\\Version=ES
 64L-G16RevB.01\State=2-A'\HF=-1610.3067457\S2=0.762837\S2-1=0.\S2A=0.7
 50077\RMSD=8.139e-09\RMSF=1.336e-04\ZeroPoint=0.0595414\Thermal=0.0673
 465\Dipole=0.2195151,-0.3405735,0.\DipoleDeriv=0.8356275,-0.393562,0.,
 -0.5090485,-0.0463752,0.,0.,0.,0.0031126,0.0168646,0.0172695,0.,0.0939
 991,1.1447397,0.,0.,0.,0.0228139,-0.2239743,0.2090426,0.,0.1696438,-0.
 4067515,0.,0.,0.,-0.115185,1.0267166,-0.4771878,0.,-0.4618693,0.448529
 8,0.,0.,0.,0.0003792,-0.3131336,0.0994417,0.,0.0311662,-0.0837345,0.,0
 .,0.,-0.0853244,-0.1342114,-0.0758654,0.,0.0404677,0.0111699,0.,0.,0.,
 -0.0327814,-0.6276213,0.2722215,0.,0.290689,-0.1478285,0.,0.,0.,-0.017
 6297,-0.0406303,-0.0322847,0.,0.0145605,-0.7754866,0.,0.,0.,-0.0316096
 ,0.0555656,-0.009932,0.,-0.0057146,0.0758008,0.,0.,0.,0.1502232,-0.695
 0256,0.3665311,0.,0.3185432,-0.2746713,0.,0.,0.,-0.0562094,0.0998222,0
 .0243254,0.,0.0175629,0.0546075,0.,0.,0.,0.1622106\Polar=127.0667894,-
 21.3636845,123.3167044,0.,0.,55.5780889\Quadrupole=-0.8080735,2.149094
 9,-1.3410214,1.7430614,0.,0.\PG=CS [SG(C6H2Cl3)]\NImag=0\\0.53959896,-
 0.00042936,0.61869109,0.,0.,0.11571451,-0.24918219,-0.04592722,0.,0.63
 101357,-0.13192873,-0.14833255,0.,-0.00612570,0.53606806,0.,0.,-0.0667
 6959,0.,0.,0.12266756,-0.05327068,-0.03651564,0.,-0.28891948,0.1214291
 0,0.,0.73466190,0.02713914,0.07098841,0.,0.04387920,-0.15290025,0.,0.0
 4758118,0.70010962,0.,0.,0.01059458,0.,0.,-0.06198352,0.,0.,0.12657110
 ,-0.01747184,-0.03802710,0.,0.03703371,0.02796788,0.,-0.11555098,0.030
 06707,0.,0.54564884,-0.03768066,-0.07020519,0.,0.09994176,-0.02669003,
 0.,-0.04615264,-0.33450675,0.,0.04580371,0.62490513,0.,0.,-0.00552093,
 0.,0.,0.00624505,0.,0.,-0.06349140,0.,0.,0.12242526,0.03521381,0.07919
 008,0.,-0.08372033,-0.00238435,0.,0.03847382,-0.08056978,0.,-0.2371538
 3,-0.05789492,0.,0.61979730,0.03343970,-0.02231935,0.,-0.00415703,0.00
 361146,0.,-0.02371832,-0.02522466,0.,-0.14424134,-0.18409209,0.,-0.040
 96749,0.76119741,0.,0.,0.00828251,0.,0.,-0.00270829,0.,0.,0.00933916,0
 .,0.,-0.06430137,0.,0.,0.12054365,-0.08950552,0.00667761,0.,0.04646619
 ,-0.01649588,0.,-0.02578875,0.03371779,0.,-0.07083562,-0.03647708,0.,-
 0.28607347,0.14808322,0.,0.44596859,0.03456955,-0.35056803,0.,-0.09294
 310,-0.03833978,0.,0.03339698,-0.06319873,0.,0.04234292,0.07644506,0.,
 0.10712047,-0.18141126,0.,-0.16707413,0.58883782,0.,0.,-0.05695647,0.,
 0.,0.01509199,0.,0.,-0.00509461,0.,0.,0.01525326,0.,0.,-0.05112732,0.,
 0.,0.07580348,-0.16163238,0.05155606,0.,-0.03601578,0.01977393,0.,-0.0
 0110243,-0.00470115,0.,0.00004465,-0.00058870,0.,0.00127700,-0.0012794
 7,0.,-0.01500911,0.02196223,0.,0.21835339,0.06953977,-0.06233733,0.,-0
 .00563723,0.00243600,0.,-0.00089515,-0.00170757,0.,0.00023565,0.001284
 13,0.,-0.00192374,-0.00320535,0.,0.03166374,-0.01864701,0.,-0.08802592
 ,0.08134135,0.,0.,-0.02088430,0.,0.,0.00476836,0.,0.,0.00332591,0.,0.,
 0.00031800,0.,0.,0.00328331,0.,0.,0.00157811,0.,0.,0.00937196,-0.00006
 002,-0.02360849,0.,-0.03847275,0.00327974,0.,0.00245525,0.02794821,0.,
 -0.00299941,-0.00115351,0.,0.00177236,0.00095378,0.,-0.00394349,-0.000
 36091,0.,-0.00286339,-0.00658949,0.,0.04347122,0.00144259,-0.03668260,
 0.,0.00056215,-0.18425851,0.,0.00394988,-0.03861007,0.,0.00188421,0.00
 437049,0.,0.00033457,-0.00202059,0.,-0.00527089,-0.00098887,0.,-0.0008
 2986,0.00093716,0.,-0.00235241,0.25790119,0.,0.,0.00455661,0.,0.,-0.02
 372368,0.,0.,0.00465330,0.,0.,0.00465813,0.,0.,-0.00087344,0.,0.,0.003
 66093,0.,0.,-0.00135022,0.,0.,0.01149393,-0.00224898,0.00260056,0.,-0.
 01767616,-0.01463905,0.,-0.27068098,-0.13394560,0.,0.00434705,0.003191
 97,0.,0.00116989,0.00120661,0.,0.00019189,0.00104682,0.,-0.00095143,-0
 .00014178,0.,0.00064274,-0.00070094,0.,0.28405049,0.00243916,-0.000958
 16,0.,0.01454821,0.00990344,0.,-0.13420166,-0.13702365,0.,-0.02592679,
 -0.01076759,0.,0.00080310,-0.00521114,0.,0.00134006,-0.00084321,0.,0.0
 0115954,0.00023072,0.,0.00106313,0.00046042,0.,0.14035088,0.14391677,0
 .,0.,0.00552811,0.,0.,0.00247475,0.,0.,-0.03374230,0.,0.,0.00259470,0.
 ,0.,0.00532005,0.,0.,-0.00085236,0.,0.,0.00011986,0.,0.,-0.00283574,0.
 ,0.,0.02393348,0.00184590,0.00118225,0.,0.00114269,-0.00075256,0.,-0.0
 1604233,0.01132482,0.,-0.14683862,0.05758202,0.,-0.03924569,0.02164945
 ,0.,-0.00368379,-0.00490664,0.,-0.00181897,0.00094559,0.,-0.00016956,0
 .00101243,0.,0.00079035,-0.00037082,0.,0.20295961,0.00099701,0.0014885
 2,0.,-0.00422179,-0.00195356,0.,0.03773526,-0.01831847,0.,0.05682364,-
 0.06912785,0.,-0.00511768,0.00546992,0.,-0.00007641,-0.00100282,0.,0.0
 0098032,-0.00032269,0.,0.00082943,-0.00116734,0.,0.00088440,0.00069412
 ,0.,-0.08846948,0.08352536,0.,0.,-0.00050456,0.,0.,0.00445526,0.,0.,0.
 00454039,0.,0.,-0.02289381,0.,0.,0.00536168,0.,0.,0.00404424,0.,0.,-0.
 00034519,0.,0.,0.00006158,0.,0.,-0.00276284,0.,0.,0.01068831,-0.003287
 06,0.00330123,0.,-0.00166947,-0.00012437,0.,-0.00423534,-0.00244086,0.
 ,0.00377605,-0.02657194,0.,-0.05151086,0.00903089,0.,0.00221306,0.0248
 4580,0.,-0.00028155,0.00082856,0.,0.00016705,-0.00003174,0.,0.00036515
 ,-0.00120481,0.,0.00106040,-0.00036472,0.,0.05340256,0.00047182,0.0002
 3518,0.,0.00008074,0.00045570,0.,-0.00260899,0.00039214,0.,0.00307014,
 -0.01161530,0.,0.00140976,-0.34679436,0.,0.00391197,-0.01028316,0.,-0.
 00000698,-0.00000943,0.,-0.00000948,0.00005872,0.,0.00014614,-0.000401
 71,0.,0.00080293,0.00071480,0.,-0.00726804,0.36724741,0.,0.,0.00595953
 ,0.,0.,-0.00051789,0.,0.,0.00528738,0.,0.,0.00471311,0.,0.,-0.03311992
 ,0.,0.,-0.00140124,0.,0.,-0.00018580,0.,0.,-0.00030141,0.,0.,0.0002222
 9,0.,0.,-0.00264505,0.,0.,0.02198899\\-0.00009343,-0.00010361,0.,0.000
 17515,-0.00037221,0.,-0.00018884,0.00006557,0.,0.00024561,-0.00030177,
 0.,0.00000837,0.00029872,0.,0.00003856,-0.00004596,0.,-0.00001794,0.00
 008775,0.,-0.00000973,0.00030344,0.,-0.00004091,0.00000593,0.,-0.00010
 433,0.00005626,0.,-0.00001251,0.00000587,0.\\\@


 ALL THINGS ARE POSSIBLE EXCEPT SKIING THROUGH A REVOLVING DOOR.
 Job cpu time:       0 days  0 hours 42 minutes 55.6 seconds.
 Elapsed time:       0 days  0 hours 10 minutes 47.1 seconds.
 File lengths (MBytes):  RWF=    172 Int=      0 D2E=      0 Chk=     34 Scr=      1
 Normal termination of Gaussian 16 at Tue Dec  9 14:05:42 2025.
