 Entering Gaussian System, Link 0=g16
 Initial command:
 /share/software/user/restricted/gaussian/g16.B01/l1.exe "/home/users/jlapier/Chloroaromatics/Gau-9996.inp" -scrdir="/home/users/jlapier/Chloroaromatics/"
 Entering Link 1 = /share/software/user/restricted/gaussian/g16.B01/l1.exe PID=      9997.
  
 Copyright (c) 1988-2017, Gaussian, Inc.  All Rights Reserved.
  
 This is part of the Gaussian(R) 16 program.  It is based on
 the Gaussian(R) 09 system (copyright 2009, Gaussian, Inc.),
 the Gaussian(R) 03 system (copyright 2003, Gaussian, Inc.),
 the Gaussian(R) 98 system (copyright 1998, Gaussian, Inc.),
 the Gaussian(R) 94 system (copyright 1995, Gaussian, Inc.),
 the Gaussian 92(TM) system (copyright 1992, Gaussian, Inc.),
 the Gaussian 90(TM) system (copyright 1990, Gaussian, Inc.),
 the Gaussian 88(TM) system (copyright 1988, Gaussian, Inc.),
 the Gaussian 86(TM) system (copyright 1986, Carnegie Mellon
 University), and the Gaussian 82(TM) system (copyright 1983,
 Carnegie Mellon University). Gaussian is a federally registered
 trademark of Gaussian, Inc.
  
 This software contains proprietary and confidential information,
 including trade secrets, belonging to Gaussian, Inc.
  
 This software is provided under written license and may be
 used, copied, transmitted, or stored only in accord with that
 written license.
  
 The following legend is applicable only to US Government
 contracts under FAR:
  
                    RESTRICTED RIGHTS LEGEND
  
 Use, reproduction and disclosure by the US Government is
 subject to restrictions as set forth in subparagraphs (a)
 and (c) of the Commercial Computer Software - Restricted
 Rights clause in FAR 52.227-19.
  
 Gaussian, Inc.
 340 Quinnipiac St., Bldg. 40, Wallingford CT 06492
  
  
 ---------------------------------------------------------------
 Warning -- This program may not be used in any manner that
 competes with the business of Gaussian, Inc. or will provide
 assistance to any competitor of Gaussian, Inc.  The licensee
 of this program is prohibited from giving any competitor of
 Gaussian, Inc. access to this program.  By using this program,
 the user acknowledges that Gaussian, Inc. is engaged in the
 business of creating and licensing software in the field of
 computational chemistry and represents and warrants to the
 licensee that it is not a competitor of Gaussian, Inc. and that
 it will not use this program in any manner prohibited above.
 ---------------------------------------------------------------
  

 Cite this work as:
 Gaussian 16, Revision B.01,
 M. J. Frisch, G. W. Trucks, H. B. Schlegel, G. E. Scuseria, 
 M. A. Robb, J. R. Cheeseman, G. Scalmani, V. Barone, 
 G. A. Petersson, H. Nakatsuji, X. Li, M. Caricato, A. V. Marenich, 
 J. Bloino, B. G. Janesko, R. Gomperts, B. Mennucci, H. P. Hratchian, 
 J. V. Ortiz, A. F. Izmaylov, J. L. Sonnenberg, D. Williams-Young, 
 F. Ding, F. Lipparini, F. Egidi, J. Goings, B. Peng, A. Petrone, 
 T. Henderson, D. Ranasinghe, V. G. Zakrzewski, J. Gao, N. Rega, 
 G. Zheng, W. Liang, M. Hada, M. Ehara, K. Toyota, R. Fukuda, 
 J. Hasegawa, M. Ishida, T. Nakajima, Y. Honda, O. Kitao, H. Nakai, 
 T. Vreven, K. Throssell, J. A. Montgomery, Jr., J. E. Peralta, 
 F. Ogliaro, M. J. Bearpark, J. J. Heyd, E. N. Brothers, K. N. Kudin, 
 V. N. Staroverov, T. A. Keith, R. Kobayashi, J. Normand, 
 K. Raghavachari, A. P. Rendell, J. C. Burant, S. S. Iyengar, 
 J. Tomasi, M. Cossi, J. M. Millam, M. Klene, C. Adamo, R. Cammi, 
 J. W. Ochterski, R. L. Martin, K. Morokuma, O. Farkas, 
 J. B. Foresman, and D. J. Fox, Gaussian, Inc., Wallingford CT, 2016.
 
 ******************************************
 Gaussian 16:  ES64L-G16RevB.01 20-Dec-2017
                 9-Dec-2025 
 ******************************************
 %mem=8GB
 %nprocshare=4
 Will use up to    4 processors via shared memory.
 %oldchk=geometry_chks/_24ClBzNeutralRadical.chk
 %chk=frequency_chks/_24ClBzNeutralRadical_Freq.chk
 Copying data from "geometry_chks/_24ClBzNeutralRadical.chk" to current chk file "frequency_chks/_24ClBzNeutralRadical_Freq.chk"
 IOpt=  2 FromEx=T IUOpen= 4 IOptOp= 5 NList=   0 IFRang= 0 IUIn= 4 IUOut= 2.
 -------------------------------------------------------
 # opt freq 6-311++g(d,p) guess=read geom=allcheck m062x
 -------------------------------------------------------
 1/18=20,19=15,26=3,29=7,38=1/1,3;
 2/9=110,12=2,40=1/2;
 3/5=4,6=6,7=1111,11=2,14=-4,25=1,30=1,71=1,74=-55,116=-2/1,2,3;
 4/5=1/1;
 5/5=2,38=6/2;
 6/7=2,8=2,9=2,10=2,28=1/1;
 7//1,2,3,16;
 1/18=20,19=15,26=3/3(2);
 2/9=110/2;
 99//99;
 2/9=110/2;
 3/5=4,6=6,7=1111,11=2,14=-2,25=1,30=1,71=1,74=-55/1,2,3;
 4/5=5,16=3,69=1/1;
 5/5=2,38=5/2;
 7//1,2,3,16;
 1/18=20,19=15,26=3/3(-5);
 2/9=110/2;
 6/7=2,8=2,9=2,10=2,19=2,28=1/1;
 99/9=1/99;
 Structure from the checkpoint file:  "frequency_chks/_24ClBzNeutralRadical_Freq.chk"
 -------------------------------
 Neutral Radical (removed 1) _24
 -------------------------------
 Charge =  0 Multiplicity = 2
 Redundant internal coordinates found in file.  (old form).
 C,0,-3.1704456777,0.1903060131,0.
 C,0,-1.9675165267,0.9297804963,0.
 C,0,-0.7446439052,0.2349116571,0.
 C,0,-0.6776185217,-1.1715846992,0.
 C,0,-1.8715252025,-1.9165733351,0.
 C,0,-3.0255628924,-1.1784441166,0.
 Cl,0,-4.6741082067,0.9464177697,0.
 H,0,-1.9903612367,2.0293723513,0.
 Cl,0,0.7000522416,1.1269032126,0.
 H,0,0.2944509088,-1.6847318607,0.
 H,0,-1.8725909807,-3.0138374886,0.
 Recover connectivity data from disk.

 GradGradGradGradGradGradGradGradGradGradGradGradGradGradGradGradGradGrad
 Berny optimization.
 Initialization pass.
                           ----------------------------
                           !    Initial Parameters    !
                           ! (Angstroms and Degrees)  !
 --------------------------                            --------------------------
 ! Name  Definition              Value          Derivative Info.                !
 --------------------------------------------------------------------------------
 ! R1    R(1,2)                  1.412          estimate D2E/DX2                !
 ! R2    R(1,6)                  1.3764         estimate D2E/DX2                !
 ! R3    R(1,7)                  1.6831         estimate D2E/DX2                !
 ! R4    R(2,3)                  1.4065         estimate D2E/DX2                !
 ! R5    R(2,8)                  1.0998         estimate D2E/DX2                !
 ! R6    R(3,4)                  1.4081         estimate D2E/DX2                !
 ! R7    R(3,9)                  1.6979         estimate D2E/DX2                !
 ! R8    R(4,5)                  1.4073         estimate D2E/DX2                !
 ! R9    R(4,10)                 1.0992         estimate D2E/DX2                !
 ! R10   R(5,6)                  1.3699         estimate D2E/DX2                !
 ! R11   R(5,11)                 1.0973         estimate D2E/DX2                !
 ! A1    A(2,1,6)              115.5379         estimate D2E/DX2                !
 ! A2    A(2,1,7)              121.7244         estimate D2E/DX2                !
 ! A3    A(6,1,7)              122.7377         estimate D2E/DX2                !
 ! A4    A(1,2,3)              118.8134         estimate D2E/DX2                !
 ! A5    A(1,2,8)              120.39           estimate D2E/DX2                !
 ! A6    A(3,2,8)              120.7966         estimate D2E/DX2                !
 ! A7    A(2,3,4)              122.3347         estimate D2E/DX2                !
 ! A8    A(2,3,9)              118.7014         estimate D2E/DX2                !
 ! A9    A(4,3,9)              118.9639         estimate D2E/DX2                !
 ! A10   A(3,4,5)              119.2355         estimate D2E/DX2                !
 ! A11   A(3,4,10)             120.5575         estimate D2E/DX2                !
 ! A12   A(5,4,10)             120.207          estimate D2E/DX2                !
 ! A13   A(4,5,6)              115.4329         estimate D2E/DX2                !
 ! A14   A(4,5,11)             122.0195         estimate D2E/DX2                !
 ! A15   A(6,5,11)             122.5476         estimate D2E/DX2                !
 ! A16   A(1,6,5)              128.6455         estimate D2E/DX2                !
 ! D1    D(6,1,2,3)              0.0            estimate D2E/DX2                !
 ! D2    D(6,1,2,8)            180.0            estimate D2E/DX2                !
 ! D3    D(7,1,2,3)            180.0            estimate D2E/DX2                !
 ! D4    D(7,1,2,8)              0.0            estimate D2E/DX2                !
 ! D5    D(2,1,6,5)              0.0            estimate D2E/DX2                !
 ! D6    D(7,1,6,5)            180.0            estimate D2E/DX2                !
 ! D7    D(1,2,3,4)              0.0            estimate D2E/DX2                !
 ! D8    D(1,2,3,9)            180.0            estimate D2E/DX2                !
 ! D9    D(8,2,3,4)            180.0            estimate D2E/DX2                !
 ! D10   D(8,2,3,9)              0.0            estimate D2E/DX2                !
 ! D11   D(2,3,4,5)              0.0            estimate D2E/DX2                !
 ! D12   D(2,3,4,10)           180.0            estimate D2E/DX2                !
 ! D13   D(9,3,4,5)            180.0            estimate D2E/DX2                !
 ! D14   D(9,3,4,10)             0.0            estimate D2E/DX2                !
 ! D15   D(3,4,5,6)              0.0            estimate D2E/DX2                !
 ! D16   D(3,4,5,11)           180.0            estimate D2E/DX2                !
 ! D17   D(10,4,5,6)           180.0            estimate D2E/DX2                !
 ! D18   D(10,4,5,11)            0.0            estimate D2E/DX2                !
 ! D19   D(4,5,6,1)              0.0            estimate D2E/DX2                !
 ! D20   D(11,5,6,1)           180.0            estimate D2E/DX2                !
 --------------------------------------------------------------------------------
 Trust Radius=3.00D-01 FncErr=1.00D-07 GrdErr=1.00D-06 EigMax=2.50D+02 EigMin=1.00D-04
 Number of steps in this run=     57 maximum allowed number of steps=    100.
 GradGradGradGradGradGradGradGradGradGradGradGradGradGradGradGradGradGrad

                          Input orientation:                          
 ---------------------------------------------------------------------
 Center     Atomic      Atomic             Coordinates (Angstroms)
 Number     Number       Type             X           Y           Z
 ---------------------------------------------------------------------
      1          6           0       -3.170446    0.190306   -0.000000
      2          6           0       -1.967517    0.929780   -0.000000
      3          6           0       -0.744644    0.234912    0.000000
      4          6           0       -0.677619   -1.171585    0.000000
      5          6           0       -1.871525   -1.916573   -0.000000
      6          6           0       -3.025563   -1.178444   -0.000000
      7         17           0       -4.674108    0.946418   -0.000000
      8          1           0       -1.990361    2.029372    0.000000
      9         17           0        0.700052    1.126903    0.000000
     10          1           0        0.294451   -1.684732    0.000000
     11          1           0       -1.872591   -3.013837   -0.000000
 ---------------------------------------------------------------------
                    Distance matrix (angstroms):
                    1          2          3          4          5
     1  C    0.000000
     2  C    1.412041   0.000000
     3  C    2.426212   1.406506   0.000000
     4  C    2.840587   2.465679   1.408092   0.000000
     5  C    2.475103   2.847972   2.428734   1.407274   0.000000
     6  C    1.376397   2.358829   2.683312   2.347954   1.369904
     7  Cl   1.683064   2.706643   3.993361   4.523037   4.006394
     8  H    2.185123   1.099829   2.184468   3.459685   3.947735
     9  Cl   3.982206   2.674842   1.697880   2.679743   3.984440
    10  H    3.939705   3.457191   2.182831   1.099199   2.178349
    11  H    3.457016   3.944760   3.438988   2.195872   1.097265
                    6          7          8          9         10
     6  C    0.000000
     7  Cl   2.689375   0.000000
     8  H    3.370716   2.894009   0.000000
     9  Cl   4.381191   5.377190   2.837741   0.000000
    10  H    3.358395   5.622235   4.360612   2.840740   0.000000
    11  H    2.167490   4.850992   5.044585   4.874857   2.542163
                   11
    11  H    0.000000
 Stoichiometry    C6H3Cl2(2)
 Framework group  CS[SG(C6H3Cl2)]
 Deg. of freedom    19
 Full point group                 CS      NOp   2
 Largest Abelian subgroup         CS      NOp   2
 Largest concise Abelian subgroup C1      NOp   1
                         Standard orientation:                         
 ---------------------------------------------------------------------
 Center     Atomic      Atomic             Coordinates (Angstroms)
 Number     Number       Type             X           Y           Z
 ---------------------------------------------------------------------
      1          6           0       -1.252414    0.072492   -0.000000
      2          6           0        0.000000    0.724657   -0.000000
      3          6           0        1.170429   -0.055315    0.000000
      4          6           0        1.137384   -1.463020    0.000000
      5          6           0       -0.106422   -2.121326    0.000000
      6          6           0       -1.205117   -1.303092    0.000000
      7         17           0       -2.698574    0.933496   -0.000000
      8          1           0        0.055315    1.823094   -0.000000
      9         17           0        2.674833    0.731810   -0.000000
     10          1           0        2.070551   -2.043915    0.000000
     11          1           0       -0.185421   -3.215743    0.000000
 ---------------------------------------------------------------------
 Rotational constants (GHZ):           2.9362282           0.8730292           0.6729430
 Standard basis: 6-311++G(d,p) (5D, 7F)
 There are   166 symmetry adapted cartesian basis functions of A'  symmetry.
 There are    55 symmetry adapted cartesian basis functions of A"  symmetry.
 There are   158 symmetry adapted basis functions of A'  symmetry.
 There are    55 symmetry adapted basis functions of A"  symmetry.
   213 basis functions,   349 primitive gaussians,   221 cartesian basis functions
    37 alpha electrons       36 beta electrons
       nuclear repulsion energy       441.1897810209 Hartrees.
 NAtoms=   11 NActive=   11 NUniq=   11 SFac= 1.00D+00 NAtFMM=   60 NAOKFM=F Big=F
 Integral buffers will be    131072 words long.
 Raffenetti 2 integral format.
 Two-electron integral symmetry is turned on.
 One-electron integrals computed using PRISM.
 NBasis=   213 RedAO= T EigKep=  1.52D-06  NBF=   158    55
 NBsUse=   213 1.00D-06 EigRej= -1.00D+00 NBFU=   158    55
 Initial guess from the checkpoint file:  "frequency_chks/_24ClBzNeutralRadical_Freq.chk"
 B after Tr=     0.000000   -0.000000    0.000000
         Rot=    1.000000   -0.000000   -0.000000   -0.000000 Ang=   0.00 deg.
 Initial guess orbital symmetries:
 Alpha Orbitals:
       Occupied  (A') (A') (A') (A') (A') (A') (A') (A') (A') (A')
                 (A') (A") (A') (A") (A') (A') (A") (A') (A') (A")
                 (A") (A") (A") (A') (A') (A") (A') (A') (A') (A')
                 (A') (A') (A') (A') (A') (A') (A')
       Virtual   (A') (A') (A') (A') (A') (A') (A') (A') (A') (A')
                 (A') (A') (A') (A') (A') (A') (A') (A') (A') (A')
                 (A') (A') (A') (A') (A') (A') (A') (A') (A') (A')
                 (A') (A') (A') (A') (A') (A') (A') (A') (A') (A')
                 (A') (A') (A') (A') (A') (A') (A') (A') (A') (A')
                 (A') (A') (A') (A') (A') (A') (A') (A') (A') (A')
                 (A') (A') (A') (A') (A') (A') (A') (A') (A') (A')
                 (A') (A') (A') (A') (A') (A') (A') (A') (A') (A')
                 (A') (A') (A') (A') (A') (A') (A') (A') (A') (A')
                 (A') (A') (A') (A') (A') (A') (A') (A') (A') (A')
                 (A') (A') (A') (A') (A') (A') (A') (A') (A') (A')
                 (A') (A') (A') (A') (A') (A') (A') (A') (A') (A')
                 (A') (A') (A') (A') (A') (A') (A') (A') (A') (A")
                 (A") (A") (A") (A") (A") (A") (A") (A") (A") (A")
                 (A") (A") (A") (A") (A") (A") (A") (A") (A") (A")
                 (A") (A") (A") (A") (A") (A") (A") (A") (A") (A")
                 (A") (A") (A") (A") (A") (A") (A") (A") (A") (A")
                 (A") (A") (A") (A") (A") (A")
 Beta  Orbitals:
       Occupied  (A') (A') (A') (A') (A') (A') (A') (A') (A') (A')
                 (A') (A") (A') (A") (A') (A") (A') (A') (A") (A")
                 (A') (A") (A") (A') (A') (A") (A') (A') (A') (A')
                 (A') (A') (A') (A') (A') (A')
       Virtual   (A') (A') (A') (A') (A') (A') (A') (A') (A') (A')
                 (A') (A') (A') (A') (A') (A') (A') (A') (A') (A')
                 (A') (A') (A') (A') (A') (A') (A') (A') (A') (A')
                 (A') (A') (A') (A') (A') (A') (A') (A') (A') (A')
                 (A') (A') (A') (A') (A') (A') (A') (A') (A') (A')
                 (A') (A') (A') (A') (A') (A') (A') (A') (A') (A')
                 (A') (A') (A') (A') (A') (A') (A') (A') (A') (A')
                 (A') (A') (A') (A') (A') (A') (A') (A') (A') (A')
                 (A') (A') (A') (A') (A') (A') (A') (A') (A') (A')
                 (A') (A') (A') (A') (A') (A') (A') (A') (A') (A')
                 (A') (A') (A') (A') (A') (A') (A') (A') (A') (A')
                 (A') (A') (A') (A') (A') (A') (A') (A') (A') (A')
                 (A') (A') (A') (A') (A') (A') (A') (A') (A') (A')
                 (A") (A") (A") (A") (A") (A") (A") (A") (A") (A")
                 (A") (A") (A") (A") (A") (A") (A") (A") (A") (A")
                 (A") (A") (A") (A") (A") (A") (A") (A") (A") (A")
                 (A") (A") (A") (A") (A") (A") (A") (A") (A") (A")
                 (A") (A") (A") (A") (A") (A") (A")
 Initial guess <Sx>= 0.0000 <Sy>= 0.0000 <Sz>= 0.5000 <S**2>= 0.7500 S= 0.5000
 Keep R1 and R2 ints in memory in symmetry-blocked form, NReq=411615841.
 Requested convergence on RMS density matrix=1.00D-08 within 128 cycles.
 Requested convergence on MAX density matrix=1.00D-06.
 Requested convergence on             energy=1.00D-06.
 No special actions if energy rises.
 EnCoef did     4 forward-backward iterations
 SCF Done:  E(UM062X) =  -1150.70544369     A.U. after   26 cycles
            NFock= 26  Conv=0.99D-08     -V/T= 2.0025
 <Sx>= 0.0000 <Sy>= 0.0000 <Sz>= 0.5000 <S**2>= 0.7631 S= 0.5065
 <L.S>=  0.00000000000    
 Annihilation of the first spin contaminant:
 S**2 before annihilation     0.7631,   after     0.7501

 **********************************************************************

            Population analysis using the SCF Density.

 **********************************************************************

 Orbital symmetries:
 Alpha Orbitals:
       Occupied  (A') (A') (A') (A') (A') (A') (A') (A') (A') (A')
                 (A') (A') (A") (A') (A") (A') (A') (A') (A') (A')
                 (A') (A') (A') (A') (A') (A') (A') (A") (A') (A')
                 (A") (A") (A') (A') (A') (A") (A")
       Virtual   (A") (A") (A') (A') (A') (A') (A') (A") (A') (A')
                 (A") (A') (A") (A') (A') (A') (A") (A') (A") (A')
                 (A') (A") (A') (A') (A") (A') (A') (A') (A") (A")
                 (A') (A') (A') (A') (A') (A') (A') (A') (A') (A')
                 (A') (A') (A') (A') (A') (A') (A') (A') (A') (A")
                 (A") (A') (A') (A') (A') (A") (A') (A') (A") (A")
                 (A') (A') (A") (A") (A') (A') (A") (A') (A') (A')
                 (A') (A') (A") (A') (A') (A') (A") (A') (A') (A")
                 (A') (A") (A') (A') (A') (A') (A') (A") (A') (A")
                 (A') (A") (A') (A') (A') (A") (A') (A') (A") (A")
                 (A') (A') (A') (A") (A') (A') (A") (A') (A") (A')
                 (A') (A') (A") (A") (A') (A") (A') (A') (A') (A")
                 (A') (A') (A") (A') (A") (A") (A") (A') (A') (A')
                 (A') (A') (A') (A') (A') (A') (A") (A') (A') (A')
                 (A') (A") (A") (A') (A") (A") (A') (A") (A') (A')
                 (A') (A') (A') (A') (A') (A') (A') (A') (A') (A')
                 (A') (A') (A') (A') (A') (A') (A') (A') (A") (A")
                 (A') (A') (A') (A') (A') (A')
 Beta  Orbitals:
       Occupied  (A') (A') (A') (A') (A') (A') (A') (A') (A') (A')
                 (A') (A') (A") (A') (A") (A') (A') (A') (A') (A')
                 (A') (A') (A') (A') (A') (A') (A') (A") (A') (A')
                 (A") (A") (A') (A') (A") (A")
       Virtual   (A') (A") (A') (A") (A') (A') (A') (A') (A") (A')
                 (A') (A') (A") (A") (A') (A') (A') (A") (A') (A")
                 (A') (A') (A") (A') (A') (A") (A') (A') (A') (A")
                 (A') (A") (A') (A') (A') (A') (A') (A') (A') (A')
                 (A') (A') (A') (A') (A') (A') (A') (A') (A') (A')
                 (A") (A") (A') (A') (A') (A') (A") (A') (A') (A')
                 (A") (A") (A') (A") (A") (A') (A') (A") (A') (A')
                 (A') (A') (A') (A") (A') (A') (A') (A") (A') (A')
                 (A") (A") (A') (A') (A') (A') (A') (A') (A") (A')
                 (A") (A') (A") (A') (A') (A') (A") (A') (A') (A")
                 (A") (A') (A') (A') (A") (A') (A') (A") (A') (A")
                 (A') (A') (A') (A") (A") (A') (A') (A") (A') (A')
                 (A") (A') (A') (A") (A') (A") (A") (A") (A') (A')
                 (A') (A') (A') (A') (A') (A') (A') (A") (A') (A')
                 (A') (A') (A") (A") (A') (A") (A") (A') (A") (A')
                 (A') (A') (A') (A') (A') (A') (A') (A') (A') (A')
                 (A') (A') (A') (A') (A') (A') (A') (A') (A') (A")
                 (A") (A') (A') (A') (A') (A') (A')
 The electronic state is 2-A'.
 Alpha  occ. eigenvalues -- -102.69449-102.68894 -10.63195 -10.62815 -10.59404
 Alpha  occ. eigenvalues --  -10.58640 -10.58341 -10.58249  -9.83790  -9.83252
 Alpha  occ. eigenvalues --   -7.56343  -7.55769  -7.55608  -7.55604  -7.55076
 Alpha  occ. eigenvalues --   -7.55074  -1.03591  -1.00189  -0.94806  -0.86420
 Alpha  occ. eigenvalues --   -0.83482  -0.72567  -0.68889  -0.60139  -0.57685
 Alpha  occ. eigenvalues --   -0.55353  -0.52988  -0.50527  -0.49565  -0.46334
 Alpha  occ. eigenvalues --   -0.45157  -0.40510  -0.40091  -0.38879  -0.32973
 Alpha  occ. eigenvalues --   -0.32771  -0.31415
 Alpha virt. eigenvalues --   -0.01656  -0.00709  -0.00320   0.01064   0.02018
 Alpha virt. eigenvalues --    0.03585   0.03974   0.05470   0.05839   0.06558
 Alpha virt. eigenvalues --    0.08173   0.08186   0.08392   0.09058   0.10158
 Alpha virt. eigenvalues --    0.11610   0.11782   0.11992   0.12423   0.12472
 Alpha virt. eigenvalues --    0.13227   0.13496   0.13876   0.14770   0.15413
 Alpha virt. eigenvalues --    0.15772   0.17022   0.17275   0.17943   0.19118
 Alpha virt. eigenvalues --    0.19337   0.20632   0.20981   0.22736   0.22809
 Alpha virt. eigenvalues --    0.23803   0.25321   0.26239   0.26607   0.27679
 Alpha virt. eigenvalues --    0.28132   0.29475   0.30667   0.32098   0.33306
 Alpha virt. eigenvalues --    0.33966   0.37057   0.44361   0.45308   0.47219
 Alpha virt. eigenvalues --    0.48421   0.49574   0.50377   0.51137   0.52290
 Alpha virt. eigenvalues --    0.54780   0.56107   0.57649   0.59155   0.60799
 Alpha virt. eigenvalues --    0.60801   0.62291   0.62809   0.63868   0.63879
 Alpha virt. eigenvalues --    0.65988   0.69115   0.71196   0.73158   0.75495
 Alpha virt. eigenvalues --    0.77763   0.79948   0.84902   0.86306   0.86425
 Alpha virt. eigenvalues --    0.87762   0.88410   0.88595   0.89573   0.91146
 Alpha virt. eigenvalues --    0.92049   0.92115   0.93315   0.95594   0.97768
 Alpha virt. eigenvalues --    0.99172   0.99794   1.02922   1.04680   1.06170
 Alpha virt. eigenvalues --    1.07052   1.13878   1.15271   1.22415   1.23315
 Alpha virt. eigenvalues --    1.24058   1.26448   1.29080   1.30476   1.36760
 Alpha virt. eigenvalues --    1.41389   1.49166   1.53143   1.58806   1.59151
 Alpha virt. eigenvalues --    1.61222   1.63079   1.69349   1.70866   1.70980
 Alpha virt. eigenvalues --    1.73815   1.80416   1.87469   1.91189   1.91306
 Alpha virt. eigenvalues --    1.94240   1.94611   1.98264   2.01182   2.02209
 Alpha virt. eigenvalues --    2.06917   2.12802   2.16921   2.22210   2.29603
 Alpha virt. eigenvalues --    2.31963   2.32404   2.33880   2.37901   2.42384
 Alpha virt. eigenvalues --    2.45740   2.50523   2.52444   2.56986   2.60217
 Alpha virt. eigenvalues --    2.65239   2.68136   2.69824   2.71493   2.75074
 Alpha virt. eigenvalues --    2.76677   2.80643   2.82860   2.83576   2.90766
 Alpha virt. eigenvalues --    2.92653   2.95911   3.09938   3.15494   3.22472
 Alpha virt. eigenvalues --    3.29288   3.35895   3.39694   3.52574   3.62625
 Alpha virt. eigenvalues --    3.81343   3.90289   4.08386   4.13214   4.77331
 Alpha virt. eigenvalues --    9.95949   9.99548  23.48154  23.87774  23.98165
 Alpha virt. eigenvalues --   24.06636  24.07639  24.20754  25.92530  25.92918
 Alpha virt. eigenvalues --   26.18807  26.27912  26.71479  26.73871 216.05769
 Alpha virt. eigenvalues --  216.10004
  Beta  occ. eigenvalues -- -102.69421-102.68899 -10.63227 -10.62850 -10.58577
  Beta  occ. eigenvalues --  -10.58447 -10.58336 -10.58172  -9.83777  -9.83254
  Beta  occ. eigenvalues --   -7.56272  -7.55766  -7.55615  -7.55582  -7.55095
  Beta  occ. eigenvalues --   -7.55076  -1.03151  -1.00081  -0.94084  -0.86074
  Beta  occ. eigenvalues --   -0.81952  -0.72001  -0.68003  -0.59072  -0.56971
  Beta  occ. eigenvalues --   -0.54508  -0.52616  -0.50129  -0.48499  -0.45875
  Beta  occ. eigenvalues --   -0.45163  -0.40045  -0.39860  -0.38798  -0.32689
  Beta  occ. eigenvalues --   -0.30333
  Beta virt. eigenvalues --   -0.07356  -0.01713  -0.00255   0.00308   0.01129
  Beta virt. eigenvalues --    0.02287   0.03875   0.04163   0.05318   0.05875
  Beta virt. eigenvalues --    0.06029   0.08038   0.08232   0.08425   0.09043
  Beta virt. eigenvalues --    0.10781   0.11443   0.11829   0.11962   0.12099
  Beta virt. eigenvalues --    0.12521   0.12942   0.13454   0.13787   0.14781
  Beta virt. eigenvalues --    0.15443   0.15987   0.16417   0.17345   0.17947
  Beta virt. eigenvalues --    0.19387   0.19764   0.20670   0.21082   0.22446
  Beta virt. eigenvalues --    0.22911   0.23850   0.24827   0.26190   0.26756
  Beta virt. eigenvalues --    0.27651   0.28418   0.29800   0.30737   0.32430
  Beta virt. eigenvalues --    0.33656   0.34281   0.37641   0.44458   0.45388
  Beta virt. eigenvalues --    0.47268   0.48483   0.49070   0.50317   0.51153
  Beta virt. eigenvalues --    0.52456   0.54953   0.56328   0.56781   0.57745
  Beta virt. eigenvalues --    0.59220   0.61094   0.62441   0.62833   0.63800
  Beta virt. eigenvalues --    0.64101   0.67194   0.68964   0.70746   0.73370
  Beta virt. eigenvalues --    0.75411   0.77916   0.80159   0.85095   0.85909
  Beta virt. eigenvalues --    0.86331   0.87713   0.88463   0.88727   0.89803
  Beta virt. eigenvalues --    0.91199   0.92101   0.92183   0.92778   0.95900
  Beta virt. eigenvalues --    0.97497   0.99277   0.99763   1.03415   1.04675
  Beta virt. eigenvalues --    1.06490   1.06818   1.14256   1.15665   1.21907
  Beta virt. eigenvalues --    1.23298   1.25949   1.26066   1.29057   1.31339
  Beta virt. eigenvalues --    1.36889   1.42795   1.49623   1.53823   1.59171
  Beta virt. eigenvalues --    1.59481   1.62663   1.63054   1.69436   1.71212
  Beta virt. eigenvalues --    1.71400   1.75048   1.80693   1.87865   1.91522
  Beta virt. eigenvalues --    1.91732   1.94688   1.94854   1.98795   2.01762
  Beta virt. eigenvalues --    2.02353   2.07450   2.13017   2.17106   2.22577
  Beta virt. eigenvalues --    2.29611   2.32022   2.32809   2.34120   2.38694
  Beta virt. eigenvalues --    2.42713   2.46216   2.50587   2.52486   2.57148
  Beta virt. eigenvalues --    2.60368   2.66167   2.68274   2.70188   2.71725
  Beta virt. eigenvalues --    2.75162   2.76740   2.81035   2.82864   2.83849
  Beta virt. eigenvalues --    2.90930   2.92443   2.98801   3.10009   3.15764
  Beta virt. eigenvalues --    3.23216   3.29405   3.36297   3.39855   3.53186
  Beta virt. eigenvalues --    3.63162   3.81544   3.90633   4.08534   4.13541
  Beta virt. eigenvalues --    4.77552   9.95951   9.99548  23.48293  23.87858
  Beta virt. eigenvalues --   23.98242  24.06664  24.07856  24.21315  25.92533
  Beta virt. eigenvalues --   25.92872  26.18833  26.27919  26.71651  26.73888
  Beta virt. eigenvalues --  216.05783 216.10024
          Condensed to atoms (all electrons):
               1          2          3          4          5          6
     1  C   14.339648  -4.934855   0.205158  -2.094077   0.010250  -0.124075
     2  C   -4.934855  26.013368  -3.638255  -3.402268  -5.764731  -3.054227
     3  C    0.205158  -3.638255  14.627326  -3.213350   1.616127  -2.518332
     4  C   -2.094077  -3.402268  -3.213350  16.392046  -1.992155  -0.091308
     5  C    0.010250  -5.764731   1.616127  -1.992155  12.390513   0.114030
     6  C   -0.124075  -3.054227  -2.518332  -0.091308   0.114030  11.895780
     7  Cl  -1.153977   0.625306  -0.085238   0.122919   0.075821  -0.394082
     8  H   -0.125433   0.616745  -0.103820  -0.006541  -0.064217  -0.034989
     9  Cl  -0.074861   0.132122  -1.009598   0.109492   0.088372   0.075380
    10  H    0.000606  -0.088709  -0.154445   0.548667  -0.033626   0.033759
    11  H   -0.103289  -0.026250   0.023264  -0.026059   0.441648   0.026016
               7          8          9         10         11
     1  C   -1.153977  -0.125433  -0.074861   0.000606  -0.103289
     2  C    0.625306   0.616745   0.132122  -0.088709  -0.026250
     3  C   -0.085238  -0.103820  -1.009598  -0.154445   0.023264
     4  C    0.122919  -0.006541   0.109492   0.548667  -0.026059
     5  C    0.075821  -0.064217   0.088372  -0.033626   0.441648
     6  C   -0.394082  -0.034989   0.075380   0.033759   0.026016
     7  Cl  17.435880   0.025894  -0.020522  -0.001092  -0.000131
     8  H    0.025894   0.476203   0.005948  -0.001113   0.000884
     9  Cl  -0.020522   0.005948  17.366507   0.010733  -0.006397
    10  H   -0.001092  -0.001113   0.010733   0.470788  -0.005974
    11  H   -0.000131   0.000884  -0.006397  -0.005974   0.469648
          Atomic-Atomic Spin Densities.
               1          2          3          4          5          6
     1  C    0.473972  -0.908615   0.521753  -0.279741   0.784025  -0.415498
     2  C   -0.908615   1.075970  -0.599384   0.344160  -0.430459   0.478655
     3  C    0.521753  -0.599384   0.354761  -0.319153   0.497523  -0.458363
     4  C   -0.279741   0.344160  -0.319153   0.359275  -0.425844   0.327527
     5  C    0.784025  -0.430459   0.497523  -0.425844   0.495089  -0.791161
     6  C   -0.415498   0.478655  -0.458363   0.327527  -0.791161   1.584943
     7  Cl  -0.036322   0.114327  -0.028775   0.019629  -0.049800  -0.035364
     8  H   -0.010754   0.020931  -0.038218   0.001466  -0.006565   0.030766
     9  Cl   0.025970  -0.049462   0.062512  -0.033368   0.044169  -0.059626
    10  H   -0.012418   0.017551  -0.015626   0.012248  -0.024370   0.020173
    11  H   -0.013033  -0.000262  -0.007488  -0.005021  -0.000470   0.017668
               7          8          9         10         11
     1  C   -0.036322  -0.010754   0.025970  -0.012418  -0.013033
     2  C    0.114327   0.020931  -0.049462   0.017551  -0.000262
     3  C   -0.028775  -0.038218   0.062512  -0.015626  -0.007488
     4  C    0.019629   0.001466  -0.033368   0.012248  -0.005021
     5  C   -0.049800  -0.006565   0.044169  -0.024370  -0.000470
     6  C   -0.035364   0.030766  -0.059626   0.020173   0.017668
     7  Cl   0.027161  -0.000600   0.001263   0.000149  -0.000577
     8  H   -0.000600   0.015008  -0.003272   0.000222   0.000165
     9  Cl   0.001263  -0.003272   0.008219  -0.003257  -0.000706
    10  H    0.000149   0.000222  -0.003257   0.009549   0.001905
    11  H   -0.000577   0.000165  -0.000706   0.001905   0.033680
 Mulliken charges and spin densities:
               1          2
     1  C    0.054905   0.129338
     2  C   -0.478248   0.063412
     3  C    0.251164  -0.030458
     4  C   -0.347366   0.001179
     5  C   -0.882032   0.092139
     6  C    0.072049   0.699721
     7  Cl   0.369221   0.011091
     8  H    0.210439   0.009150
     9  Cl   0.322825  -0.007558
    10  H    0.220405   0.006125
    11  H    0.206639   0.025861
 Sum of Mulliken charges =  -0.00000   1.00000
 Mulliken charges and spin densities with hydrogens summed into heavy atoms:
               1          2
     1  C    0.054905   0.129338
     2  C   -0.267809   0.072562
     3  C    0.251164  -0.030458
     4  C   -0.126961   0.007305
     5  C   -0.675393   0.117999
     6  C    0.072049   0.699721
     7  Cl   0.369221   0.011091
     9  Cl   0.322825  -0.007558
 Electronic spatial extent (au):  <R**2>=           1486.0152
 Charge=             -0.0000 electrons
 Dipole moment (field-independent basis, Debye):
    X=              0.5159    Y=             -1.1145    Z=              0.0000  Tot=              1.2281
 Quadrupole moment (field-independent basis, Debye-Ang):
   XX=            -62.7858   YY=            -53.1884   ZZ=            -62.7335
   XY=             -2.1477   XZ=              0.0000   YZ=             -0.0000
 Traceless Quadrupole moment (field-independent basis, Debye-Ang):
   XX=             -3.2165   YY=              6.3808   ZZ=             -3.1643
   XY=             -2.1477   XZ=              0.0000   YZ=             -0.0000
 Octapole moment (field-independent basis, Debye-Ang**2):
  XXX=              4.3392  YYY=             -4.6037  ZZZ=             -0.0000  XYY=              4.3323
  XXY=              2.7445  XXZ=             -0.0000  XZZ=              0.0198  YZZ=              5.6806
  YYZ=             -0.0000  XYZ=              0.0000
 Hexadecapole moment (field-independent basis, Debye-Ang**3):
 XXXX=          -1342.9591 YYYY=           -460.7217 ZZZZ=            -73.1317 XXXY=             10.4730
 XXXZ=             -0.0000 YYYX=             19.1868 YYYZ=             -0.0000 ZZZX=             -0.0000
 ZZZY=             -0.0000 XXYY=           -302.8630 XXZZ=           -247.2651 YYZZ=           -108.4309
 XXYZ=             -0.0000 YYXZ=              0.0000 ZZXY=              9.5602
 N-N= 4.411897810209D+02 E-N=-3.604257691085D+03  KE= 1.147823108807D+03
 Symmetry A'   KE= 1.049502373457D+03
 Symmetry A"   KE= 9.832073534942D+01
 Symmetry A'   SP= 1.000000000000D+00
 Symmetry A"   SP=-7.946468923182D-15
                          Isotropic Fermi Contact Couplings
        Atom                 a.u.       MegaHertz       Gauss      10(-4) cm-1
     1  C(13)             -0.01061     -11.93038      -4.25706      -3.97955
     2  C(13)              0.03453      38.82057      13.85214      12.94915
     3  C(13)             -0.00925     -10.39981      -3.71091      -3.46900
     4  C(13)              0.05043      56.69525      20.23028      18.91150
     5  C(13)              0.00508       5.70875       2.03702       1.90423
     6  C(13)              0.42602     478.92351     170.89182     159.75169
     7  Cl(35)             0.02218       9.72340       3.46955       3.24338
     8  H(1)               0.00388      17.34126       6.18779       5.78442
     9  Cl(35)             0.00384       1.68266       0.60042       0.56128
    10  H(1)               0.00232      10.37907       3.70351       3.46209
    11  H(1)               0.01227      54.83493      19.56647      18.29097
 --------------------------------------------------------
       Center         ----  Spin Dipole Couplings  ----
                      3XX-RR        3YY-RR        3ZZ-RR
 --------------------------------------------------------
     1   Atom       -0.022830      0.128852     -0.106022
     2   Atom        0.011371     -0.008651     -0.002721
     3   Atom        0.034248      0.023996     -0.058245
     4   Atom        0.036791     -0.028814     -0.007977
     5   Atom        0.087720      0.011811     -0.099531
     6   Atom        0.643182     -0.246992     -0.396191
     7   Atom        0.029607      0.102130     -0.131737
     8   Atom       -0.003513      0.008360     -0.004847
     9   Atom        0.028226      0.019858     -0.048084
    10   Atom        0.008391     -0.002918     -0.005473
    11   Atom        0.002134      0.009863     -0.011998
 --------------------------------------------------------
                        XY            XZ            YZ
 --------------------------------------------------------
     1   Atom        0.001309      0.000000     -0.000000
     2   Atom        0.034581      0.000000     -0.000000
     3   Atom        0.006280     -0.000000     -0.000000
     4   Atom        0.032843      0.000000      0.000000
     5   Atom       -0.037766     -0.000000      0.000000
     6   Atom        0.634088     -0.000000     -0.000000
     7   Atom       -0.122135     -0.000000     -0.000000
     8   Atom        0.003082      0.000000     -0.000000
     9   Atom        0.008300      0.000000      0.000000
    10   Atom       -0.004937      0.000000     -0.000000
    11   Atom       -0.015986     -0.000000      0.000000
 --------------------------------------------------------


 ---------------------------------------------------------------------------------
              Anisotropic Spin Dipole Couplings in Principal Axis System
 ---------------------------------------------------------------------------------

       Atom             a.u.   MegaHertz   Gauss  10(-4) cm-1        Axes

              Baa    -0.1060   -14.227    -5.077    -4.746  0.0000  0.0000  1.0000
     1 C(13)  Bbb    -0.0228    -3.065    -1.094    -1.022  1.0000 -0.0086  0.0000
              Bcc     0.1289    17.292     6.170     5.768  0.0086  1.0000 -0.0000
 
              Baa    -0.0346    -4.648    -1.659    -1.551 -0.6008  0.7994  0.0000
     2 C(13)  Bbb    -0.0027    -0.365    -0.130    -0.122  0.0000  0.0000  1.0000
              Bcc     0.0374     5.014     1.789     1.672  0.7994  0.6008  0.0000
 
              Baa    -0.0582    -7.816    -2.789    -2.607  0.0000  0.0000  1.0000
     3 C(13)  Bbb     0.0210     2.820     1.006     0.941 -0.4288  0.9034 -0.0000
              Bcc     0.0372     4.996     1.783     1.666  0.9034  0.4288 -0.0000
 
              Baa    -0.0424    -5.694    -2.032    -1.899 -0.3830  0.9238  0.0000
     4 C(13)  Bbb    -0.0080    -1.070    -0.382    -0.357  0.0000  0.0000  1.0000
              Bcc     0.0504     6.764     2.414     2.256  0.9238  0.3830 -0.0000
 
              Baa    -0.0995   -13.356    -4.766    -4.455  0.0000  0.0000  1.0000
     5 C(13)  Bbb    -0.0038    -0.507    -0.181    -0.169  0.3815  0.9244 -0.0000
              Bcc     0.1033    13.863     4.947     4.624  0.9244 -0.3815  0.0000
 
              Baa    -0.5766   -77.376   -27.610   -25.810 -0.4612  0.8873  0.0000
     6 C(13)  Bbb    -0.3962   -53.165   -18.971   -17.734  0.0000  0.0000  1.0000
              Bcc     0.9728   130.541    46.580    43.544  0.8873  0.4612 -0.0000
 
              Baa    -0.1317    -6.895    -2.460    -2.300  0.0000  0.0000  1.0000
     7 Cl(35) Bbb    -0.0615    -3.221    -1.149    -1.074  0.8014  0.5981  0.0000
              Bcc     0.1933    10.115     3.609     3.374 -0.5981  0.8014 -0.0000
 
              Baa    -0.0048    -2.586    -0.923    -0.863  0.0000  0.0000  1.0000
     8 H(1)   Bbb    -0.0043    -2.276    -0.812    -0.759  0.9715 -0.2371  0.0000
              Bcc     0.0091     4.862     1.735     1.622  0.2371  0.9715 -0.0000
 
              Baa    -0.0481    -2.517    -0.898    -0.839  0.0000  0.0000  1.0000
     9 Cl(35) Bbb     0.0147     0.772     0.275     0.257 -0.5243  0.8515 -0.0000
              Bcc     0.0333     1.745     0.623     0.582  0.8515  0.5243 -0.0000
 
              Baa    -0.0055    -2.920    -1.042    -0.974  0.0000  0.0000  1.0000
    10 H(1)   Bbb    -0.0048    -2.545    -0.908    -0.849  0.3512  0.9363 -0.0000
              Bcc     0.0102     5.465     1.950     1.823  0.9363 -0.3512  0.0000
 
              Baa    -0.0120    -6.401    -2.284    -2.135  0.0000  0.0000  1.0000
    11 H(1)   Bbb    -0.0104    -5.574    -1.989    -1.859  0.7858  0.6185 -0.0000
              Bcc     0.0224    11.976     4.273     3.995 -0.6185  0.7858 -0.0000
 

 ---------------------------------------------------------------------------------

 Calling FoFJK, ICntrl=      2127 FMM=F ISym2X=1 I1Cent= 0 IOpClX= 1 NMat=1 NMatS=1 NMatT=0.
 ***** Axes restored to original set *****
 -------------------------------------------------------------------
 Center     Atomic                   Forces (Hartrees/Bohr)
 Number     Number              X              Y              Z
 -------------------------------------------------------------------
      1        6           0.044279229   -0.012523862    0.000000000
      2        6          -0.002256054   -0.002054464   -0.000000000
      3        6          -0.025593154   -0.016967429   -0.000000000
      4        6           0.000487159   -0.000792807    0.000000000
      5        6           0.007260254    0.007097657    0.000000000
      6        6          -0.013012768   -0.003718249   -0.000000000
      7       17          -0.022637519    0.011149713   -0.000000000
      8        1           0.000962256   -0.011113708    0.000000000
      9       17           0.018885490    0.011782185    0.000000000
     10        1          -0.008680679    0.007155539   -0.000000000
     11        1           0.000305786    0.009985425    0.000000000
 -------------------------------------------------------------------
 Cartesian Forces:  Max     0.044279229 RMS     0.012110446

 GradGradGradGradGradGradGradGradGradGradGradGradGradGradGradGradGradGrad
 Berny optimization.
 FormGI is forming the generalized inverse of G from B-inverse, IUseBI=4.
 Internal  Forces:  Max     0.025232991 RMS     0.007281180
 Search for a local minimum.
 Step number   1 out of a maximum of   57
 All quantities printed in internal units (Hartrees-Bohrs-Radians)
 Mixed Optimization -- RFO/linear search
 Second derivative matrix not updated -- first step.
 ITU=  0
     Eigenvalues ---    0.01961   0.01982   0.01987   0.01994   0.02025
     Eigenvalues ---    0.02089   0.02161   0.02369   0.16000   0.16000
     Eigenvalues ---    0.16000   0.22327   0.23503   0.24545   0.25000
     Eigenvalues ---    0.25000   0.33701   0.33771   0.33986   0.36147
     Eigenvalues ---    0.38008   0.40867   0.42094   0.44024   0.44436
     Eigenvalues ---    0.48517   0.50197
 RFO step:  Lambda=-6.91012915D-03 EMin= 1.96141994D-02
 Linear search not attempted -- first point.
 Iteration  1 RMS(Cart)=  0.02403857 RMS(Int)=  0.00022529
 Iteration  2 RMS(Cart)=  0.00027660 RMS(Int)=  0.00005610
 Iteration  3 RMS(Cart)=  0.00000004 RMS(Int)=  0.00005610
 ClnCor:  largest displacement from symmetrization is 6.36D-11 for atom    10.
 Variable       Old X    -DE/DX   Delta X   Delta X   Delta X     New X
                                 (Linear)    (Quad)   (Total)
    R1        2.66837  -0.01185   0.00000  -0.02677  -0.02675   2.64163
    R2        2.60101  -0.00647   0.00000  -0.01222  -0.01214   2.58888
    R3        3.18053   0.02523   0.00000   0.06520   0.06520   3.24573
    R4        2.65791  -0.01331   0.00000  -0.03012  -0.03019   2.62772
    R5        2.07838  -0.01113   0.00000  -0.03237  -0.03237   2.04601
    R6        2.66091  -0.01445   0.00000  -0.03277  -0.03285   2.62806
    R7        3.20853   0.02226   0.00000   0.06043   0.06043   3.26895
    R8        2.65936  -0.00825   0.00000  -0.01824  -0.01826   2.64111
    R9        2.07719  -0.01102   0.00000  -0.03197  -0.03197   2.04522
   R10        2.58874  -0.00257   0.00000  -0.00434  -0.00427   2.58447
   R11        2.07353  -0.00999   0.00000  -0.02879  -0.02879   2.04473
    A1        2.01652   0.00679   0.00000   0.02660   0.02670   2.04321
    A2        2.12449  -0.00305   0.00000  -0.01196  -0.01200   2.11249
    A3        2.14218  -0.00374   0.00000  -0.01464  -0.01469   2.12748
    A4        2.07368   0.00254   0.00000   0.00866   0.00860   2.08228
    A5        2.10120  -0.00052   0.00000   0.00019   0.00021   2.10142
    A6        2.10830  -0.00202   0.00000  -0.00884  -0.00881   2.09949
    A7        2.13514  -0.00228   0.00000  -0.01211  -0.01227   2.12287
    A8        2.07173   0.00096   0.00000   0.00536   0.00544   2.07717
    A9        2.07631   0.00132   0.00000   0.00675   0.00683   2.08314
   A10        2.08105   0.00085   0.00000   0.00160   0.00148   2.08254
   A11        2.10413  -0.00280   0.00000  -0.01500  -0.01494   2.08918
   A12        2.09801   0.00194   0.00000   0.01340   0.01346   2.11147
   A13        2.01468   0.00651   0.00000   0.02927   0.02931   2.04399
   A14        2.12964  -0.00357   0.00000  -0.01652  -0.01654   2.11310
   A15        2.13886  -0.00294   0.00000  -0.01275  -0.01277   2.12609
   A16        2.24529  -0.01440   0.00000  -0.05401  -0.05381   2.19148
    D1        0.00000   0.00000   0.00000  -0.00000   0.00000   0.00000
    D2        3.14159  -0.00000   0.00000  -0.00000   0.00000   3.14159
    D3        3.14159  -0.00000   0.00000  -0.00000   0.00000   3.14159
    D4       -0.00000  -0.00000   0.00000  -0.00000   0.00000   0.00000
    D5       -0.00000  -0.00000   0.00000   0.00000   0.00000   0.00000
    D6        3.14159   0.00000   0.00000   0.00000   0.00000   3.14159
    D7       -0.00000  -0.00000   0.00000  -0.00000   0.00000   0.00000
    D8        3.14159   0.00000   0.00000   0.00000   0.00000   3.14159
    D9        3.14159   0.00000   0.00000  -0.00000   0.00000   3.14159
   D10        0.00000   0.00000   0.00000   0.00000  -0.00000   0.00000
   D11        0.00000  -0.00000   0.00000   0.00000   0.00000   0.00000
   D12        3.14159   0.00000   0.00000   0.00000   0.00000   3.14159
   D13        3.14159  -0.00000   0.00000  -0.00000   0.00000   3.14159
   D14        0.00000  -0.00000   0.00000   0.00000  -0.00000   0.00000
   D15       -0.00000   0.00000   0.00000  -0.00000   0.00000   0.00000
   D16        3.14159   0.00000   0.00000   0.00000   0.00000   3.14159
   D17        3.14159  -0.00000   0.00000  -0.00000   0.00000   3.14159
   D18        0.00000  -0.00000   0.00000  -0.00000   0.00000   0.00000
   D19        0.00000   0.00000   0.00000   0.00000   0.00000   0.00000
   D20        3.14159  -0.00000   0.00000  -0.00000   0.00000   3.14159
         Item               Value     Threshold  Converged?
 Maximum Force            0.025233     0.000450     NO 
 RMS     Force            0.007281     0.000300     NO 
 Maximum Displacement     0.082047     0.001800     NO 
 RMS     Displacement     0.024079     0.001200     NO 
 Predicted change in Energy=-3.523779D-03
 GradGradGradGradGradGradGradGradGradGradGradGradGradGradGradGradGradGrad

                          Input orientation:                          
 ---------------------------------------------------------------------
 Center     Atomic      Atomic             Coordinates (Angstroms)
 Number     Number       Type             X           Y           Z
 ---------------------------------------------------------------------
      1          6           0       -3.153490    0.172263   -0.000000
      2          6           0       -1.962091    0.903467    0.000000
      3          6           0       -0.747733    0.226035    0.000000
      4          6           0       -0.687644   -1.163374    0.000000
      5          6           0       -1.875505   -1.899791   -0.000000
      6          6           0       -3.046683   -1.193541   -0.000000
      7         17           0       -4.678036    0.963337   -0.000000
      8          1           0       -1.983567    1.985955    0.000000
      9         17           0        0.721954    1.138405    0.000000
     10          1           0        0.274740   -1.658504    0.000000
     11          1           0       -1.861816   -2.981731   -0.000000
 ---------------------------------------------------------------------
                    Distance matrix (angstroms):
                    1          2          3          4          5
     1  C    0.000000
     2  C    1.397888   0.000000
     3  C    2.406357   1.390532   0.000000
     4  C    2.804340   2.428178   1.390708   0.000000
     5  C    2.434471   2.804594   2.406450   1.397614   0.000000
     6  C    1.369974   2.360886   2.701919   2.359232   1.367642
     7  Cl   1.717568   2.716605   3.998862   4.521740   4.006455
     8  H    2.158286   1.082701   2.150490   3.405538   3.887248
     9  Cl   3.994057   2.694307   1.729856   2.699103   3.997178
    10  H    3.886447   3.401045   2.144047   1.082283   2.163741
    11  H    3.408240   3.886492   3.395724   2.164510   1.082027
                    6          7          8          9         10
     6  C    0.000000
     7  Cl   2.704337   0.000000
     8  H    3.352523   2.881997   0.000000
     9  Cl   4.431772   5.402827   2.835169   0.000000
    10  H    3.353810   5.603931   4.287428   2.832438   0.000000
    11  H    2.145118   4.847129   4.969178   4.863270   2.513126
                   11
    11  H    0.000000
 Stoichiometry    C6H3Cl2(2)
 Framework group  CS[SG(C6H3Cl2)]
 Deg. of freedom    19
 Full point group                 CS      NOp   2
 Largest Abelian subgroup         CS      NOp   2
 Largest concise Abelian subgroup C1      NOp   1
                         Standard orientation:                         
 ---------------------------------------------------------------------
 Center     Atomic      Atomic             Coordinates (Angstroms)
 Number     Number       Type             X           Y           Z
 ---------------------------------------------------------------------
      1          6           0       -1.239895    0.049412    0.000000
      2          6           0       -0.000000    0.694974    0.000000
      3          6           0        1.163682   -0.066224   -0.000000
      4          6           0        1.125860   -1.456417   -0.000000
      5          6           0       -0.110874   -2.107428    0.000000
      6          6           0       -1.229455   -1.320522    0.000000
      7         17           0       -2.705001    0.945798    0.000000
      8          1           0        0.054743    1.776290    0.000000
      9         17           0        2.693923    0.740474   -0.000000
     10          1           0        2.051020   -2.018036   -0.000000
     11          1           0       -0.173346   -3.187650    0.000000
 ---------------------------------------------------------------------
 Rotational constants (GHZ):           2.9356393           0.8664281           0.6689835
 Standard basis: 6-311++G(d,p) (5D, 7F)
 There are   166 symmetry adapted cartesian basis functions of A'  symmetry.
 There are    55 symmetry adapted cartesian basis functions of A"  symmetry.
 There are   158 symmetry adapted basis functions of A'  symmetry.
 There are    55 symmetry adapted basis functions of A"  symmetry.
   213 basis functions,   349 primitive gaussians,   221 cartesian basis functions
    37 alpha electrons       36 beta electrons
       nuclear repulsion energy       440.6165217433 Hartrees.
 NAtoms=   11 NActive=   11 NUniq=   11 SFac= 1.00D+00 NAtFMM=   60 NAOKFM=F Big=F
 Integral buffers will be    131072 words long.
 Raffenetti 2 integral format.
 Two-electron integral symmetry is turned on.
 One-electron integrals computed using PRISM.
 NBasis=   213 RedAO= T EigKep=  1.49D-06  NBF=   158    55
 NBsUse=   213 1.00D-06 EigRej= -1.00D+00 NBFU=   158    55
 Initial guess from the checkpoint file:  "frequency_chks/_24ClBzNeutralRadical_Freq.chk"
 B after Tr=    -0.000000    0.000000   -0.000000
         Rot=    1.000000   -0.000000    0.000000    0.000470 Ang=   0.05 deg.
 Initial guess orbital symmetries:
 Alpha Orbitals:
       Occupied  (A') (A') (A') (A') (A') (A') (A') (A') (A') (A')
                 (A') (A') (A") (A') (A") (A') (A') (A') (A') (A')
                 (A') (A') (A') (A') (A') (A') (A') (A") (A') (A')
                 (A") (A") (A') (A') (A') (A") (A")
       Virtual   (A") (A") (A') (A') (A') (A') (A') (A") (A') (A')
                 (A") (A') (A") (A') (A') (A') (A") (A') (A") (A')
                 (A') (A") (A') (A') (A") (A') (A') (A') (A") (A")
                 (A') (A') (A') (A') (A') (A') (A') (A') (A') (A')
                 (A') (A') (A') (A') (A') (A') (A') (A') (A') (A")
                 (A") (A') (A') (A') (A') (A") (A') (A') (A") (A")
                 (A') (A') (A") (A") (A') (A') (A") (A') (A') (A')
                 (A') (A') (A") (A') (A') (A') (A") (A') (A') (A")
                 (A') (A") (A') (A') (A') (A') (A') (A") (A') (A")
                 (A') (A") (A') (A') (A') (A") (A') (A') (A") (A")
                 (A') (A') (A') (A") (A') (A') (A") (A') (A") (A')
                 (A') (A') (A") (A") (A') (A") (A') (A') (A') (A")
                 (A') (A') (A") (A') (A") (A") (A") (A') (A') (A')
                 (A') (A') (A') (A') (A') (A') (A") (A') (A') (A')
                 (A') (A") (A") (A') (A") (A") (A') (A") (A') (A')
                 (A') (A') (A') (A') (A') (A') (A') (A') (A') (A')
                 (A') (A') (A') (A') (A') (A') (A') (A') (A") (A")
                 (A') (A') (A') (A') (A') (A')
 Beta  Orbitals:
       Occupied  (A') (A') (A') (A') (A') (A') (A') (A') (A') (A')
                 (A') (A') (A") (A') (A") (A') (A') (A') (A') (A')
                 (A') (A') (A') (A') (A') (A') (A') (A") (A') (A')
                 (A") (A") (A') (A') (A") (A")
       Virtual   (A') (A") (A') (A") (A') (A') (A') (A') (A") (A')
                 (A') (A') (A") (A") (A') (A') (A') (A") (A') (A")
                 (A') (A') (A") (A') (A') (A") (A') (A') (A') (A")
                 (A') (A") (A') (A') (A') (A') (A') (A') (A') (A')
                 (A') (A') (A') (A') (A') (A') (A') (A') (A') (A')
                 (A") (A") (A') (A') (A') (A') (A") (A') (A') (A')
                 (A") (A") (A') (A") (A") (A') (A') (A") (A') (A')
                 (A') (A') (A') (A") (A') (A') (A') (A") (A') (A')
                 (A") (A") (A') (A') (A') (A') (A') (A') (A") (A')
                 (A") (A') (A") (A') (A') (A') (A") (A') (A') (A")
                 (A") (A') (A') (A') (A") (A') (A') (A") (A') (A")
                 (A') (A') (A') (A") (A") (A') (A') (A") (A') (A')
                 (A") (A') (A') (A") (A') (A") (A") (A") (A') (A')
                 (A') (A') (A') (A') (A') (A') (A') (A") (A') (A')
                 (A') (A') (A") (A") (A') (A") (A") (A') (A") (A')
                 (A') (A') (A') (A') (A') (A') (A') (A') (A') (A')
                 (A') (A') (A') (A') (A') (A') (A') (A') (A') (A")
                 (A") (A') (A') (A') (A') (A') (A')
 Initial guess <Sx>= 0.0000 <Sy>= 0.0000 <Sz>= 0.5000 <S**2>= 0.7631 S= 0.5065
 ExpMin= 3.60D-02 ExpMax= 1.06D+05 ExpMxC= 3.62D+03 IAcc=3 IRadAn=         5 AccDes= 0.00D+00
 Harris functional with IExCor= 1009 and IRadAn=       5 diagonalized for initial guess.
 HarFok:  IExCor= 1009 AccDes= 0.00D+00 IRadAn=         5 IDoV= 1 UseB2=F ITyADJ=14
 ICtDFT=  3500011 ScaDFX=  1.000000  1.000000  1.000000  1.000000
 FoFCou: FMM=F IPFlag=           0 FMFlag=      100000 FMFlg1=           0
         NFxFlg=           0 DoJE=T BraDBF=F KetDBF=T FulRan=T
         wScrn=  0.000000 ICntrl=       500 IOpCl=  0 I1Cent=   200000004 NGrid=           0
         NMat0=    1 NMatS0=      1 NMatT0=    0 NMatD0=    1 NMtDS0=    0 NMtDT0=    0
 Petite list used in FoFCou.
 Keep R1 and R2 ints in memory in symmetry-blocked form, NReq=411615841.
 Requested convergence on RMS density matrix=1.00D-08 within 128 cycles.
 Requested convergence on MAX density matrix=1.00D-06.
 Requested convergence on             energy=1.00D-06.
 No special actions if energy rises.
 SCF Done:  E(UM062X) =  -1150.70946241     A.U. after   18 cycles
            NFock= 18  Conv=0.48D-08     -V/T= 2.0024
 <Sx>= 0.0000 <Sy>= 0.0000 <Sz>= 0.5000 <S**2>= 0.7627 S= 0.5063
 <L.S>=  0.00000000000    
 Annihilation of the first spin contaminant:
 S**2 before annihilation     0.7627,   after     0.7501
 Calling FoFJK, ICntrl=      2127 FMM=F ISym2X=1 I1Cent= 0 IOpClX= 1 NMat=1 NMatS=1 NMatT=0.
 ***** Axes restored to original set *****
 -------------------------------------------------------------------
 Center     Atomic                   Forces (Hartrees/Bohr)
 Number     Number              X              Y              Z
 -------------------------------------------------------------------
      1        6           0.014551469   -0.003628183    0.000000000
      2        6          -0.002662345    0.003032116   -0.000000000
      3        6          -0.006757967   -0.004338435   -0.000000000
      4        6           0.001181413   -0.001610284    0.000000000
      5        6           0.003113613    0.002549946    0.000000000
      6        6          -0.006623795   -0.001463638   -0.000000000
      7       17          -0.006928902    0.003658238   -0.000000000
      8        1          -0.000418720    0.000277247   -0.000000000
      9       17           0.004110288    0.002685065    0.000000000
     10        1           0.000074313   -0.000397096    0.000000000
     11        1           0.000360634   -0.000764975    0.000000000
 -------------------------------------------------------------------
 Cartesian Forces:  Max     0.014551469 RMS     0.003727508

 GradGradGradGradGradGradGradGradGradGradGradGradGradGradGradGradGradGrad
 Berny optimization.
 Using GEDIIS/GDIIS optimizer.
 FormGI is forming the generalized inverse of G from B-inverse, IUseBI=4.
 Internal  Forces:  Max     0.007834888 RMS     0.001801453
 Search for a local minimum.
 Step number   2 out of a maximum of   57
 All quantities printed in internal units (Hartrees-Bohrs-Radians)
 Mixed Optimization -- RFO/linear search
 Update second derivatives using D2CorX and points    1    2
 DE= -4.02D-03 DEPred=-3.52D-03 R= 1.14D+00
 TightC=F SS=  1.41D+00  RLast= 1.42D-01 DXNew= 5.0454D-01 4.2484D-01
 Trust test= 1.14D+00 RLast= 1.42D-01 DXMaxT set to 4.25D-01
 ITU=  1  0
 Use linear search instead of GDIIS.
     Eigenvalues ---    0.01961   0.01982   0.01987   0.01994   0.02025
     Eigenvalues ---    0.02090   0.02163   0.02361   0.15973   0.16000
     Eigenvalues ---    0.16100   0.20550   0.22648   0.24498   0.25000
     Eigenvalues ---    0.25007   0.32292   0.33733   0.33906   0.35203
     Eigenvalues ---    0.37048   0.40677   0.42887   0.43800   0.44417
     Eigenvalues ---    0.49629   0.51269
 RFO step:  Lambda=-3.98048022D-04 EMin= 1.96122717D-02
 Quartic linear search produced a step of  0.19965.
 Iteration  1 RMS(Cart)=  0.00544168 RMS(Int)=  0.00003798
 Iteration  2 RMS(Cart)=  0.00004306 RMS(Int)=  0.00002221
 Iteration  3 RMS(Cart)=  0.00000000 RMS(Int)=  0.00002221
 ClnCor:  largest displacement from symmetrization is 1.97D-09 for atom     9.
 Variable       Old X    -DE/DX   Delta X   Delta X   Delta X     New X
                                 (Linear)    (Quad)   (Total)
    R1        2.64163  -0.00298  -0.00534  -0.00441  -0.00974   2.63189
    R2        2.58888   0.00094  -0.00242   0.00404   0.00165   2.59053
    R3        3.24573   0.00783   0.01302   0.01529   0.02831   3.27404
    R4        2.62772   0.00005  -0.00603   0.00435  -0.00170   2.62602
    R5        2.04601   0.00029  -0.00646   0.00569  -0.00077   2.04524
    R6        2.62806   0.00054  -0.00656   0.00617  -0.00043   2.62763
    R7        3.26895   0.00491   0.01206   0.00754   0.01961   3.28856
    R8        2.64111  -0.00102  -0.00364  -0.00004  -0.00370   2.63741
    R9        2.04522   0.00025  -0.00638   0.00550  -0.00088   2.04434
   R10        2.58447   0.00263  -0.00085   0.00689   0.00606   2.59053
   R11        2.04473   0.00077  -0.00575   0.00688   0.00113   2.04586
    A1        2.04321   0.00373   0.00533   0.01403   0.01940   2.06262
    A2        2.11249  -0.00195  -0.00240  -0.00762  -0.01004   2.10245
    A3        2.12748  -0.00178  -0.00293  -0.00641  -0.00937   2.11812
    A4        2.08228  -0.00216   0.00172  -0.01323  -0.01153   2.07075
    A5        2.10142   0.00065   0.00004   0.00277   0.00282   2.10424
    A6        2.09949   0.00150  -0.00176   0.01046   0.00871   2.10820
    A7        2.12287   0.00166  -0.00245   0.00963   0.00712   2.12999
    A8        2.07717  -0.00102   0.00109  -0.00563  -0.00451   2.07266
    A9        2.08314  -0.00064   0.00136  -0.00401  -0.00261   2.08053
   A10        2.08254  -0.00087   0.00030  -0.00463  -0.00438   2.07815
   A11        2.08918   0.00076  -0.00298   0.00682   0.00387   2.09305
   A12        2.11147   0.00011   0.00269  -0.00220   0.00051   2.11198
   A13        2.04399   0.00115   0.00585   0.00260   0.00845   2.05244
   A14        2.11310  -0.00094  -0.00330  -0.00373  -0.00703   2.10607
   A15        2.12609  -0.00021  -0.00255   0.00113  -0.00142   2.12467
   A16        2.19148  -0.00351  -0.01074  -0.00840  -0.01906   2.17241
    D1       -0.00000  -0.00000   0.00000  -0.00000   0.00000   0.00000
    D2        3.14159   0.00000   0.00000   0.00000   0.00000   3.14159
    D3        3.14159   0.00000   0.00000  -0.00000   0.00000   3.14159
    D4       -0.00000   0.00000   0.00000   0.00000   0.00000   0.00000
    D5        0.00000   0.00000   0.00000   0.00000   0.00000   0.00000
    D6        3.14159  -0.00000   0.00000   0.00000   0.00000   3.14159
    D7        0.00000  -0.00000   0.00000   0.00000   0.00000   0.00000
    D8        3.14159   0.00000   0.00000  -0.00000   0.00000   3.14159
    D9        3.14159   0.00000   0.00000  -0.00000   0.00000   3.14159
   D10       -0.00000   0.00000   0.00000  -0.00000   0.00000   0.00000
   D11       -0.00000   0.00000   0.00000  -0.00000   0.00000   0.00000
   D12        3.14159   0.00000   0.00000   0.00000   0.00000   3.14159
   D13        3.14159   0.00000   0.00000  -0.00000   0.00000   3.14159
   D14        0.00000   0.00000   0.00000   0.00000   0.00000   0.00000
   D15        0.00000   0.00000   0.00000   0.00000   0.00000   0.00000
   D16        3.14159   0.00000   0.00000   0.00000   0.00000   3.14159
   D17        3.14159  -0.00000   0.00000  -0.00000   0.00000   3.14159
   D18        0.00000  -0.00000   0.00000   0.00000  -0.00000   0.00000
   D19       -0.00000   0.00000   0.00000  -0.00000   0.00000   0.00000
   D20        3.14159   0.00000   0.00000  -0.00000   0.00000   3.14159
         Item               Value     Threshold  Converged?
 Maximum Force            0.007835     0.000450     NO 
 RMS     Force            0.001801     0.000300     NO 
 Maximum Displacement     0.017532     0.001800     NO 
 RMS     Displacement     0.005434     0.001200     NO 
 Predicted change in Energy=-3.116643D-04
 GradGradGradGradGradGradGradGradGradGradGradGradGradGradGradGradGradGrad

                          Input orientation:                          
 ---------------------------------------------------------------------
 Center     Atomic      Atomic             Coordinates (Angstroms)
 Number     Number       Type             X           Y           Z
 ---------------------------------------------------------------------
      1          6           0       -3.144212    0.168778   -0.000000
      2          6           0       -1.962483    0.905817    0.000000
      3          6           0       -0.751855    0.223575    0.000000
      4          6           0       -0.687898   -1.165435    0.000000
      5          6           0       -1.875265   -1.898933   -0.000000
      6          6           0       -3.054021   -1.199100   -0.000000
      7         17           0       -4.679788    0.971107   -0.000000
      8          1           0       -1.988691    1.987794    0.000000
      9         17           0        0.726482    1.141685    0.000000
     10          1           0        0.273539   -1.661387    0.000000
     11          1           0       -1.855678   -2.981380   -0.000000
 ---------------------------------------------------------------------
                    Distance matrix (angstroms):
                    1          2          3          4          5
     1  C    0.000000
     2  C    1.392734   0.000000
     3  C    2.392985   1.389631   0.000000
     4  C    2.795283   2.432006   1.390481   0.000000
     5  C    2.426038   2.806106   2.401477   1.395658   0.000000
     6  C    1.370849   2.371103   2.706284   2.366363   1.370851
     7  Cl   1.732549   2.718090   3.998433   4.527693   4.012790
     8  H    2.155005   1.082295   2.154584   3.410999   3.888382
     9  Cl   3.991092   2.699290   1.740232   2.706154   4.001805
    10  H    3.876922   3.404457   2.145813   1.081817   2.161894
    11  H    3.403500   3.888664   3.389714   2.159020   1.082624
                    6          7          8          9         10
     6  C    0.000000
     7  Cl   2.711627   0.000000
     8  H    3.360242   2.876744   0.000000
     9  Cl   4.446513   5.408961   2.843952   0.000000
    10  H    3.359518   5.609410   4.293507   2.839431   0.000000
    11  H    2.147684   4.857752   4.970954   4.864896   2.505184
                   11
    11  H    0.000000
 Stoichiometry    C6H3Cl2(2)
 Framework group  CS[SG(C6H3Cl2)]
 Deg. of freedom    19
 Full point group                 CS      NOp   2
 Largest Abelian subgroup         CS      NOp   2
 Largest concise Abelian subgroup C1      NOp   1
                         Standard orientation:                         
 ---------------------------------------------------------------------
 Center     Atomic      Atomic             Coordinates (Angstroms)
 Number     Number       Type             X           Y           Z
 ---------------------------------------------------------------------
      1          6           0       -1.231387    0.044981    0.000000
      2          6           0        0.000000    0.695669    0.000000
      3          6           0        1.158768   -0.071359    0.000000
      4          6           0        1.123281   -1.461388    0.000000
      5          6           0       -0.113477   -2.108142    0.000000
      6          6           0       -1.239197   -1.325846    0.000000
      7         17           0       -2.705689    0.955014    0.000000
      8          1           0        0.051195    1.776752    0.000000
      9         17           0        2.698946    0.738737    0.000000
     10          1           0        2.046809   -2.024791    0.000000
     11          1           0       -0.171310   -3.189220    0.000000
 ---------------------------------------------------------------------
 Rotational constants (GHZ):           2.9206734           0.8649910           0.6673482
 Standard basis: 6-311++G(d,p) (5D, 7F)
 There are   166 symmetry adapted cartesian basis functions of A'  symmetry.
 There are    55 symmetry adapted cartesian basis functions of A"  symmetry.
 There are   158 symmetry adapted basis functions of A'  symmetry.
 There are    55 symmetry adapted basis functions of A"  symmetry.
   213 basis functions,   349 primitive gaussians,   221 cartesian basis functions
    37 alpha electrons       36 beta electrons
       nuclear repulsion energy       439.9366289082 Hartrees.
 NAtoms=   11 NActive=   11 NUniq=   11 SFac= 1.00D+00 NAtFMM=   60 NAOKFM=F Big=F
 Integral buffers will be    131072 words long.
 Raffenetti 2 integral format.
 Two-electron integral symmetry is turned on.
 One-electron integrals computed using PRISM.
 NBasis=   213 RedAO= T EigKep=  1.52D-06  NBF=   158    55
 NBsUse=   213 1.00D-06 EigRej= -1.00D+00 NBFU=   158    55
 Initial guess from the checkpoint file:  "frequency_chks/_24ClBzNeutralRadical_Freq.chk"
 B after Tr=     0.000000    0.000000   -0.000000
         Rot=    1.000000   -0.000000    0.000000    0.000916 Ang=   0.11 deg.
 Initial guess orbital symmetries:
 Alpha Orbitals:
       Occupied  (A') (A') (A') (A') (A') (A') (A') (A') (A') (A')
                 (A') (A') (A") (A') (A') (A") (A') (A') (A') (A')
                 (A') (A') (A') (A') (A') (A') (A') (A") (A') (A')
                 (A") (A") (A') (A') (A') (A") (A")
       Virtual   (A") (A") (A') (A') (A') (A') (A') (A") (A') (A')
                 (A') (A") (A") (A') (A') (A') (A") (A') (A") (A')
                 (A') (A") (A') (A') (A') (A") (A') (A') (A") (A')
                 (A") (A') (A') (A') (A') (A') (A') (A') (A') (A')
                 (A') (A') (A') (A') (A') (A') (A') (A') (A') (A")
                 (A") (A') (A') (A') (A') (A") (A') (A') (A") (A')
                 (A") (A') (A") (A") (A') (A') (A") (A') (A') (A')
                 (A') (A') (A") (A') (A') (A') (A') (A") (A') (A")
                 (A') (A") (A') (A') (A') (A') (A') (A") (A') (A')
                 (A") (A") (A') (A') (A") (A') (A') (A') (A") (A")
                 (A') (A') (A') (A') (A") (A') (A") (A') (A') (A")
                 (A') (A') (A") (A") (A') (A") (A') (A') (A') (A")
                 (A') (A') (A") (A') (A") (A") (A") (A') (A') (A')
                 (A') (A') (A') (A') (A') (A') (A") (A') (A') (A')
                 (A') (A") (A") (A') (A") (A") (A') (A") (A') (A')
                 (A') (A') (A') (A') (A') (A') (A') (A') (A') (A')
                 (A') (A') (A') (A') (A') (A') (A') (A') (A") (A")
                 (A') (A') (A') (A') (A') (A')
 Beta  Orbitals:
       Occupied  (A') (A') (A') (A') (A') (A') (A') (A') (A') (A')
                 (A') (A') (A") (A') (A") (A') (A') (A') (A') (A')
                 (A') (A') (A') (A') (A') (A') (A') (A") (A') (A')
                 (A") (A") (A') (A') (A") (A")
       Virtual   (A') (A") (A') (A") (A') (A') (A') (A') (A") (A')
                 (A') (A') (A") (A") (A') (A') (A') (A") (A') (A")
                 (A') (A') (A") (A') (A') (A") (A') (A') (A') (A")
                 (A') (A") (A') (A') (A') (A') (A') (A') (A') (A')
                 (A') (A') (A') (A') (A') (A') (A') (A') (A') (A')
                 (A") (A") (A') (A') (A') (A') (A") (A') (A') (A')
                 (A") (A") (A") (A') (A") (A') (A') (A") (A') (A')
                 (A') (A') (A') (A") (A') (A') (A') (A') (A") (A')
                 (A") (A') (A") (A') (A') (A') (A') (A') (A") (A')
                 (A') (A") (A") (A') (A') (A') (A") (A') (A') (A")
                 (A") (A') (A') (A') (A') (A") (A') (A") (A') (A')
                 (A") (A') (A') (A") (A") (A') (A") (A') (A') (A')
                 (A") (A') (A') (A") (A') (A") (A") (A") (A') (A')
                 (A') (A') (A') (A') (A') (A') (A') (A") (A') (A')
                 (A') (A') (A") (A") (A') (A") (A") (A') (A") (A')
                 (A') (A') (A') (A') (A') (A') (A') (A') (A') (A')
                 (A') (A') (A') (A') (A') (A') (A') (A') (A') (A")
                 (A") (A') (A') (A') (A') (A') (A')
 Initial guess <Sx>= 0.0000 <Sy>= 0.0000 <Sz>= 0.5000 <S**2>= 0.7627 S= 0.5063
 Keep R1 and R2 ints in memory in symmetry-blocked form, NReq=411615841.
 Requested convergence on RMS density matrix=1.00D-08 within 128 cycles.
 Requested convergence on MAX density matrix=1.00D-06.
 Requested convergence on             energy=1.00D-06.
 No special actions if energy rises.
 SCF Done:  E(UM062X) =  -1150.70982525     A.U. after   16 cycles
            NFock= 16  Conv=0.36D-08     -V/T= 2.0024
 <Sx>= 0.0000 <Sy>= 0.0000 <Sz>= 0.5000 <S**2>= 0.7629 S= 0.5064
 <L.S>=  0.00000000000    
 Annihilation of the first spin contaminant:
 S**2 before annihilation     0.7629,   after     0.7501
 Calling FoFJK, ICntrl=      2127 FMM=F ISym2X=1 I1Cent= 0 IOpClX= 1 NMat=1 NMatS=1 NMatT=0.
 ***** Axes restored to original set *****
 -------------------------------------------------------------------
 Center     Atomic                   Forces (Hartrees/Bohr)
 Number     Number              X              Y              Z
 -------------------------------------------------------------------
      1        6           0.002460201   -0.001950209   -0.000000000
      2        6          -0.000116357    0.001791458   -0.000000000
      3        6          -0.000670111   -0.000991632   -0.000000000
      4        6           0.000579411    0.000517915   -0.000000000
      5        6          -0.000154375   -0.000056433   -0.000000000
      6        6          -0.001083045    0.000400372   -0.000000000
      7       17          -0.001624149    0.000669319   -0.000000000
      8        1          -0.000072390    0.000243631   -0.000000000
      9       17           0.000399833    0.000188808   -0.000000000
     10        1           0.000279234   -0.000298951   -0.000000000
     11        1           0.000001750   -0.000514278   -0.000000000
 -------------------------------------------------------------------
 Cartesian Forces:  Max     0.002460201 RMS     0.000783411

 GradGradGradGradGradGradGradGradGradGradGradGradGradGradGradGradGradGrad
 Berny optimization.
 Using GEDIIS/GDIIS optimizer.
 FormGI is forming the generalized inverse of G from B-inverse, IUseBI=4.
 Internal  Forces:  Max     0.001749175 RMS     0.000416878
 Search for a local minimum.
 Step number   3 out of a maximum of   57
 All quantities printed in internal units (Hartrees-Bohrs-Radians)
 Mixed Optimization -- En-DIIS/RFO-DIIS
 Update second derivatives using D2CorX and points    1    2    3
 DE= -3.63D-04 DEPred=-3.12D-04 R= 1.16D+00
 TightC=F SS=  1.41D+00  RLast= 5.22D-02 DXNew= 7.1450D-01 1.5647D-01
 Trust test= 1.16D+00 RLast= 5.22D-02 DXMaxT set to 4.25D-01
 ITU=  1  1  0
 Use linear search instead of GDIIS.
     Eigenvalues ---    0.01961   0.01982   0.01987   0.01994   0.02025
     Eigenvalues ---    0.02090   0.02164   0.02358   0.15918   0.16000
     Eigenvalues ---    0.16054   0.17338   0.22546   0.24637   0.25000
     Eigenvalues ---    0.25088   0.31677   0.33741   0.33903   0.35371
     Eigenvalues ---    0.36959   0.40786   0.43044   0.44270   0.45374
     Eigenvalues ---    0.49631   0.51229
 RFO step:  Lambda=-1.57687624D-05 EMin= 1.96133584D-02
 Quartic linear search produced a step of  0.20490.
 Iteration  1 RMS(Cart)=  0.00177473 RMS(Int)=  0.00000373
 Iteration  2 RMS(Cart)=  0.00000307 RMS(Int)=  0.00000283
 Iteration  3 RMS(Cart)=  0.00000000 RMS(Int)=  0.00000283
 ClnCor:  largest displacement from symmetrization is 4.43D-10 for atom     9.
 Variable       Old X    -DE/DX   Delta X   Delta X   Delta X     New X
                                 (Linear)    (Quad)   (Total)
    R1        2.63189   0.00048  -0.00200   0.00249   0.00050   2.63238
    R2        2.59053  -0.00028   0.00034  -0.00119  -0.00084   2.58969
    R3        3.27404   0.00175   0.00580   0.00191   0.00771   3.28175
    R4        2.62602   0.00057  -0.00035   0.00137   0.00102   2.62705
    R5        2.04524   0.00025  -0.00016   0.00046   0.00030   2.04554
    R6        2.62763   0.00020  -0.00009   0.00011   0.00002   2.62765
    R7        3.28856   0.00044   0.00402  -0.00077   0.00325   3.29181
    R8        2.63741   0.00063  -0.00076   0.00196   0.00120   2.63861
    R9        2.04434   0.00039  -0.00018   0.00098   0.00080   2.04513
   R10        2.59053   0.00037   0.00124  -0.00025   0.00099   2.59153
   R11        2.04586   0.00051   0.00023   0.00114   0.00137   2.04723
    A1        2.06262   0.00092   0.00398   0.00170   0.00569   2.06830
    A2        2.10245  -0.00019  -0.00206   0.00049  -0.00157   2.10089
    A3        2.11812  -0.00072  -0.00192  -0.00220  -0.00412   2.11400
    A4        2.07075  -0.00096  -0.00236  -0.00287  -0.00523   2.06552
    A5        2.10424   0.00041   0.00058   0.00145   0.00203   2.10627
    A6        2.10820   0.00055   0.00178   0.00142   0.00320   2.11139
    A7        2.12999   0.00045   0.00146   0.00111   0.00257   2.13256
    A8        2.07266  -0.00015  -0.00092  -0.00005  -0.00097   2.07169
    A9        2.08053  -0.00030  -0.00054  -0.00107  -0.00160   2.07893
   A10        2.07815  -0.00005  -0.00090   0.00067  -0.00024   2.07792
   A11        2.09305   0.00016   0.00079   0.00019   0.00098   2.09403
   A12        2.11198  -0.00011   0.00011  -0.00085  -0.00074   2.11124
   A13        2.05244  -0.00011   0.00173  -0.00154   0.00019   2.05263
   A14        2.10607   0.00006  -0.00144   0.00122  -0.00022   2.10586
   A15        2.12467   0.00005  -0.00029   0.00032   0.00003   2.12470
   A16        2.17241  -0.00024  -0.00391   0.00093  -0.00297   2.16944
    D1        0.00000  -0.00000   0.00000   0.00000   0.00000   0.00000
    D2        3.14159   0.00000   0.00000   0.00000   0.00000   3.14159
    D3        3.14159  -0.00000   0.00000  -0.00000   0.00000   3.14159
    D4        0.00000   0.00000   0.00000   0.00000   0.00000   0.00000
    D5        0.00000  -0.00000   0.00000  -0.00000   0.00000   0.00000
    D6        3.14159   0.00000   0.00000   0.00000   0.00000   3.14159
    D7        0.00000   0.00000   0.00000  -0.00000   0.00000   0.00000
    D8        3.14159   0.00000   0.00000   0.00000   0.00000   3.14159
    D9        3.14159  -0.00000   0.00000  -0.00000   0.00000   3.14159
   D10        0.00000  -0.00000   0.00000  -0.00000   0.00000   0.00000
   D11        0.00000   0.00000   0.00000   0.00000   0.00000   0.00000
   D12        3.14159  -0.00000   0.00000   0.00000   0.00000   3.14159
   D13        3.14159  -0.00000   0.00000  -0.00000   0.00000   3.14159
   D14        0.00000  -0.00000   0.00000  -0.00000   0.00000   0.00000
   D15        0.00000  -0.00000   0.00000  -0.00000   0.00000   0.00000
   D16        3.14159  -0.00000   0.00000  -0.00000   0.00000   3.14159
   D17        3.14159   0.00000   0.00000  -0.00000   0.00000   3.14159
   D18        0.00000  -0.00000   0.00000  -0.00000   0.00000   0.00000
   D19        0.00000   0.00000   0.00000   0.00000   0.00000   0.00000
   D20        3.14159   0.00000   0.00000   0.00000   0.00000   3.14159
         Item               Value     Threshold  Converged?
 Maximum Force            0.001749     0.000450     NO 
 RMS     Force            0.000417     0.000300     NO 
 Maximum Displacement     0.005744     0.001800     NO 
 RMS     Displacement     0.001774     0.001200     NO 
 Predicted change in Energy=-1.820464D-05
 GradGradGradGradGradGradGradGradGradGradGradGradGradGradGradGradGradGrad

                          Input orientation:                          
 ---------------------------------------------------------------------
 Center     Atomic      Atomic             Coordinates (Angstroms)
 Number     Number       Type             X           Y           Z
 ---------------------------------------------------------------------
      1          6           0       -3.141716    0.167921    0.000000
      2          6           0       -1.962034    0.908725    0.000000
      3          6           0       -0.752410    0.223603    0.000000
      4          6           0       -0.687887   -1.165392    0.000000
      5          6           0       -1.875672   -1.899424    0.000000
      6          6           0       -3.055129   -1.199743    0.000000
      7         17           0       -4.682116    0.969822    0.000000
      8          1           0       -1.989370    1.990834    0.000000
      9         17           0        0.728481    1.140855    0.000000
     10          1           0        0.273637   -1.662091    0.000000
     11          1           0       -1.855655   -2.982589    0.000000
 ---------------------------------------------------------------------
                    Distance matrix (angstroms):
                    1          2          3          4          5
     1  C    0.000000
     2  C    1.392997   0.000000
     3  C    2.389954   1.390173   0.000000
     4  C    2.792668   2.434217   1.390493   0.000000
     5  C    2.424208   2.809477   2.401866   1.396294   0.000000
[...]
      7       17          -0.000214424    0.000056884   -0.000000000
      8        1          -0.000009358    0.000004320   -0.000000000
      9       17          -0.000154426   -0.000119415   -0.000000000
     10        1           0.000030357   -0.000050885   -0.000000000
     11        1           0.000012420   -0.000012534   -0.000000000
 -------------------------------------------------------------------
 Cartesian Forces:  Max     0.000364477 RMS     0.000143960
 FormGI is forming the generalized inverse of G from B-inverse, IUseBI=4.

 GradGradGradGradGradGradGradGradGradGradGradGradGradGradGradGradGradGrad
 Berny optimization.
 Internal  Forces:  Max     0.000216211 RMS     0.000085465
 Search for a local minimum.
 Step number   1 out of a maximum of    2
 All quantities printed in internal units (Hartrees-Bohrs-Radians)
 Second derivative matrix not updated -- analytic derivatives used.
 ITU=  0
     Eigenvalues ---    0.01711   0.01751   0.01901   0.02410   0.02608
     Eigenvalues ---    0.03032   0.03306   0.03872   0.10605   0.10948
     Eigenvalues ---    0.11631   0.15263   0.16735   0.16984   0.18164
     Eigenvalues ---    0.19795   0.26478   0.27252   0.28086   0.36379
     Eigenvalues ---    0.36854   0.36954   0.42747   0.43349   0.47697
     Eigenvalues ---    0.49192   0.52703
 Angle between quadratic step and forces=  16.39 degrees.
 Linear search not attempted -- first point.
 Iteration  1 RMS(Cart)=  0.00061195 RMS(Int)=  0.00000027
 Iteration  2 RMS(Cart)=  0.00000037 RMS(Int)=  0.00000003
 ClnCor:  largest displacement from symmetrization is 4.91D-11 for atom     9.
 Variable       Old X    -DE/DX   Delta X   Delta X   Delta X     New X
                                 (Linear)    (Quad)   (Total)
    R1        2.63238  -0.00001   0.00000  -0.00009  -0.00009   2.63229
    R2        2.58969  -0.00019   0.00000  -0.00059  -0.00059   2.58909
    R3        3.28175   0.00022   0.00000   0.00112   0.00112   3.28287
    R4        2.62705   0.00010   0.00000   0.00034   0.00034   2.62739
    R5        2.04554   0.00000   0.00000  -0.00004  -0.00004   2.04550
    R6        2.62765   0.00001   0.00000  -0.00003  -0.00003   2.62762
    R7        3.29181  -0.00019   0.00000  -0.00066  -0.00066   3.29114
    R8        2.63861   0.00007   0.00000   0.00031   0.00031   2.63892
    R9        2.04513   0.00005   0.00000   0.00016   0.00016   2.04529
   R10        2.59153  -0.00001   0.00000  -0.00004  -0.00004   2.59149
   R11        2.04723   0.00001   0.00000  -0.00004  -0.00004   2.04720
    A1        2.06830   0.00007   0.00000   0.00058   0.00058   2.06888
    A2        2.10089   0.00005   0.00000   0.00031   0.00031   2.10120
    A3        2.11400  -0.00012   0.00000  -0.00090  -0.00090   2.11310
    A4        2.06552  -0.00019   0.00000  -0.00114  -0.00114   2.06438
    A5        2.10627   0.00008   0.00000   0.00058   0.00058   2.10685
    A6        2.11139   0.00011   0.00000   0.00056   0.00056   2.11196
    A7        2.13256   0.00010   0.00000   0.00049   0.00049   2.13304
    A8        2.07169  -0.00002   0.00000  -0.00007  -0.00007   2.07162
    A9        2.07893  -0.00008   0.00000  -0.00042  -0.00042   2.07852
   A10        2.07792   0.00004   0.00000   0.00049   0.00049   2.07841
   A11        2.09403   0.00001   0.00000  -0.00013  -0.00013   2.09390
   A12        2.11124  -0.00005   0.00000  -0.00036  -0.00036   2.11087
   A13        2.05263  -0.00021   0.00000  -0.00127  -0.00127   2.05136
   A14        2.10586   0.00009   0.00000   0.00043   0.00043   2.10629
   A15        2.12470   0.00012   0.00000   0.00084   0.00084   2.12554
   A16        2.16944   0.00020   0.00000   0.00085   0.00085   2.17030
    D1        0.00000   0.00000   0.00000  -0.00000   0.00000   0.00000
    D2        3.14159   0.00000   0.00000  -0.00000   0.00000   3.14159
    D3        3.14159   0.00000   0.00000   0.00000   0.00000   3.14159
    D4        0.00000   0.00000   0.00000   0.00000   0.00000   0.00000
    D5        0.00000  -0.00000   0.00000   0.00000   0.00000   0.00000
    D6        3.14159  -0.00000   0.00000  -0.00000   0.00000   3.14159
    D7        0.00000  -0.00000   0.00000  -0.00000   0.00000   0.00000
    D8        3.14159  -0.00000   0.00000  -0.00000   0.00000   3.14159
    D9        3.14159  -0.00000   0.00000   0.00000   0.00000   3.14159
   D10        0.00000  -0.00000   0.00000  -0.00000   0.00000   0.00000
   D11        0.00000  -0.00000   0.00000   0.00000   0.00000   0.00000
   D12        3.14159  -0.00000   0.00000  -0.00000   0.00000   3.14159
   D13        3.14159  -0.00000   0.00000   0.00000   0.00000   3.14159
   D14        0.00000  -0.00000   0.00000  -0.00000   0.00000   0.00000
   D15        0.00000   0.00000   0.00000   0.00000   0.00000   0.00000
   D16        3.14159  -0.00000   0.00000   0.00000   0.00000   3.14159
   D17        3.14159   0.00000   0.00000   0.00000   0.00000   3.14159
   D18        0.00000  -0.00000   0.00000   0.00000   0.00000   0.00000
   D19        0.00000  -0.00000   0.00000  -0.00000   0.00000   0.00000
   D20        3.14159   0.00000   0.00000  -0.00000   0.00000   3.14159
         Item               Value     Threshold  Converged?
 Maximum Force            0.000216     0.000450     YES
 RMS     Force            0.000085     0.000300     YES
 Maximum Displacement     0.001733     0.001800     YES
 RMS     Displacement     0.000612     0.001200     YES
 Predicted change in Energy=-8.688104D-07
 Optimization completed.
    -- Stationary point found.
                           ----------------------------
                           !   Optimized Parameters   !
                           ! (Angstroms and Degrees)  !
 --------------------------                            --------------------------
 ! Name  Definition              Value          Derivative Info.                !
 --------------------------------------------------------------------------------
 ! R1    R(1,2)                  1.393          -DE/DX =    0.0                 !
 ! R2    R(1,6)                  1.3704         -DE/DX =   -0.0002              !
 ! R3    R(1,7)                  1.7366         -DE/DX =    0.0002              !
 ! R4    R(2,3)                  1.3902         -DE/DX =    0.0001              !
 ! R5    R(2,8)                  1.0825         -DE/DX =    0.0                 !
 ! R6    R(3,4)                  1.3905         -DE/DX =    0.0                 !
 ! R7    R(3,9)                  1.7419         -DE/DX =   -0.0002              !
 ! R8    R(4,5)                  1.3963         -DE/DX =    0.0001              !
 ! R9    R(4,10)                 1.0822         -DE/DX =    0.0001              !
 ! R10   R(5,6)                  1.3714         -DE/DX =    0.0                 !
 ! R11   R(5,11)                 1.0834         -DE/DX =    0.0                 !
 ! A1    A(2,1,6)              118.505          -DE/DX =    0.0001              !
 ! A2    A(2,1,7)              120.3719         -DE/DX =    0.0001              !
 ! A3    A(6,1,7)              121.1231         -DE/DX =   -0.0001              !
 ! A4    A(1,2,3)              118.3455         -DE/DX =   -0.0002              !
 ! A5    A(1,2,8)              120.6805         -DE/DX =    0.0001              !
 ! A6    A(3,2,8)              120.974          -DE/DX =    0.0001              !
 ! A7    A(2,3,4)              122.1865         -DE/DX =    0.0001              !
 ! A8    A(2,3,9)              118.6994         -DE/DX =    0.0                 !
 ! A9    A(4,3,9)              119.1141         -DE/DX =   -0.0001              !
 ! A10   A(3,4,5)              119.0558         -DE/DX =    0.0                 !
 ! A11   A(3,4,10)             119.9793         -DE/DX =    0.0                 !
 ! A12   A(5,4,10)             120.9649         -DE/DX =    0.0                 !
 ! A13   A(4,5,6)              117.6072         -DE/DX =   -0.0002              !
 ! A14   A(4,5,11)             120.6567         -DE/DX =    0.0001              !
 ! A15   A(6,5,11)             121.7361         -DE/DX =    0.0001              !
 ! A16   A(1,6,5)              124.2999         -DE/DX =    0.0002              !
 ! D1    D(6,1,2,3)              0.0            -DE/DX =    0.0                 !
 ! D2    D(6,1,2,8)            180.0            -DE/DX =    0.0                 !
 ! D3    D(7,1,2,3)            180.0            -DE/DX =    0.0                 !
 ! D4    D(7,1,2,8)              0.0            -DE/DX =    0.0                 !
 ! D5    D(2,1,6,5)              0.0            -DE/DX =    0.0                 !
 ! D6    D(7,1,6,5)            180.0            -DE/DX =    0.0                 !
 ! D7    D(1,2,3,4)              0.0            -DE/DX =    0.0                 !
 ! D8    D(1,2,3,9)            180.0            -DE/DX =    0.0                 !
 ! D9    D(8,2,3,4)            180.0            -DE/DX =    0.0                 !
 ! D10   D(8,2,3,9)              0.0            -DE/DX =    0.0                 !
 ! D11   D(2,3,4,5)              0.0            -DE/DX =    0.0                 !
 ! D12   D(2,3,4,10)           180.0            -DE/DX =    0.0                 !
 ! D13   D(9,3,4,5)            180.0            -DE/DX =    0.0                 !
 ! D14   D(9,3,4,10)             0.0            -DE/DX =    0.0                 !
 ! D15   D(3,4,5,6)              0.0            -DE/DX =    0.0                 !
 ! D16   D(3,4,5,11)           180.0            -DE/DX =    0.0                 !
 ! D17   D(10,4,5,6)           180.0            -DE/DX =    0.0                 !
 ! D18   D(10,4,5,11)            0.0            -DE/DX =    0.0                 !
 ! D19   D(4,5,6,1)              0.0            -DE/DX =    0.0                 !
 ! D20   D(11,5,6,1)           180.0            -DE/DX =    0.0                 !
 --------------------------------------------------------------------------------
 GradGradGradGradGradGradGradGradGradGradGradGradGradGradGradGradGradGrad


 ----------------------------------------------------------------------

 Electric dipole moment (input orientation):
 (Debye = 10**-18 statcoulomb cm , SI units = C m)
                  (au)            (Debye)         (10**-30 SI)
   Tot        0.569174D+00      0.144670D+01      0.482566D+01
   x          0.272620D+00      0.692930D+00      0.231137D+01
   y         -0.499638D+00     -0.126995D+01     -0.423611D+01
   z          0.000000D+00      0.000000D+00      0.000000D+00

 Dipole polarizability, Alpha (input orientation).
 (esu units = cm**3 , SI units = C**2 m**2 J**-1)
 Alpha(0;0):
               (au)            (10**-24 esu)      (10**-40 SI)
   iso        0.885069D+02      0.131154D+02      0.145928D+02
   aniso      0.610913D+02      0.905280D+01      0.100726D+02
   xx         0.119646D+03      0.177298D+02      0.197270D+02
   yx        -0.178363D+01     -0.264306D+00     -0.294081D+00
   yy         0.956004D+02      0.141665D+02      0.157624D+02
   zx         0.000000D+00      0.000000D+00      0.000000D+00
   zy         0.000000D+00      0.000000D+00      0.000000D+00
   zz         0.502741D+02      0.744985D+01      0.828907D+01

 ----------------------------------------------------------------------

 Dipole orientation:
     6         -4.44152207         -2.42344720         -3.12221653
     6         -2.13507264         -1.16496906         -3.28333933
     6         -0.91799049         -0.50088719         -1.05195341
     6         -1.92765777         -1.05179638          1.31059123
     6         -4.24052582         -2.31377673          1.45314716
     6         -5.40211195         -2.94757808         -0.77508563
    17         -6.04749314         -3.29972025         -5.84671528
     1         -1.31509164         -0.71755923         -5.10314469
    17          1.96727424          1.07341248         -1.23314437
     1         -0.92214445         -0.50315373          3.00484755
     1         -5.07200456         -2.76746013          3.26808109

 Electric dipole moment (dipole orientation):
 (Debye = 10**-18 statcoulomb cm , SI units = C m)
                  (au)            (Debye)         (10**-30 SI)
   Tot        0.569174D+00      0.144670D+01      0.482566D+01
   x          0.000000D+00      0.000000D+00      0.000000D+00
   y          0.000000D+00      0.000000D+00      0.000000D+00
   z          0.569174D+00      0.144670D+01      0.482566D+01

 Dipole polarizability, Alpha (dipole orientation).
 (esu units = cm**3 , SI units = C**2 m**2 J**-1)
 Alpha(0;0):
               (au)            (10**-24 esu)      (10**-40 SI)
   iso        0.885069D+02      0.131154D+02      0.145928D+02
   aniso      0.610913D+02      0.905280D+01      0.100726D+02
   xx         0.983245D+02      0.145702D+02      0.162115D+02
   yx         0.262180D+02      0.388511D+01      0.432276D+01
   yy         0.645795D+02      0.956969D+01      0.106477D+02
   zx         0.972246D+01      0.144072D+01      0.160302D+01
   zy         0.530491D+01      0.786106D+00      0.874661D+00
   zz         0.102617D+03      0.152062D+02      0.169192D+02

 ----------------------------------------------------------------------
 1\1\GINC-SH03-01N54\Freq\UM062X\6-311++G(d,p)\C6H3Cl2(2)\JLAPIER\09-De
 c-2025\0\\#N Geom=AllCheck Guess=TCheck SCRF=Check GenChk UM062X/6-311
 ++G(d,p) Freq\\Neutral Radical (removed 1) _24\\0,2\C,-3.1417155668,0.
 1679214892,0.\C,-1.9620336034,0.9087253642,0.\C,-0.7524098854,0.223602
 8958,0.\C,-0.6878874582,-1.1653919569,0.\C,-1.8756720115,-1.8994243095
 ,0.\C,-3.0551293053,-1.1997427859,0.\Cl,-4.6821158193,0.9698215547,0.\
 H,-1.9893698907,1.9908335504,0.\Cl,0.7284814293,1.1408545337,0.\H,0.27
 36369006,-1.6620909247,0.\H,-1.8556547893,-2.9825894111,0.\\Version=ES
 64L-G16RevB.01\State=2-A'\HF=-1150.7098454\S2=0.762895\S2-1=0.\S2A=0.7
 50072\RMSD=1.946e-09\RMSF=1.440e-04\ZeroPoint=0.0690438\Thermal=0.0756
 529\Dipole=0.2726196,-0.4996379,0.\DipoleDeriv=0.9658229,-0.4188177,0.
 ,-0.4957635,0.3407498,0.,0.,0.,0.0569447,-0.4003642,-0.0191594,0.,-0.0
 171853,-0.0768474,0.,0.,0.,-0.1276899,0.9017619,0.5018624,0.,0.5318957
 ,0.3286579,0.,0.,0.,0.0138803,-0.1757288,-0.075469,0.,-0.1208352,-0.10
 52763,0.,0.,0.,-0.1532459,0.0471671,-0.0152251,0.,-0.0364364,0.0347852
 ,0.,0.,0.,-0.0468266,-0.223333,0.0165323,0.,0.1214636,-0.1566054,0.,0.
 ,0.,-0.0873626,-0.6726242,0.2669572,0.,0.3257135,-0.22419,0.,0.,0.,-0.
 0436845,0.0875786,-0.0064825,0.,0.0052678,0.0439992,0.,0.,0.,0.1441266
 ,-0.6206679,-0.2897627,0.,-0.3267932,-0.2629231,0.,0.,0.,-0.0586148,0.
 0131672,0.0313888,0.,0.0122349,0.0764224,0.,0.,0.,0.1450141,0.0772204,
 0.0081758,0.,0.0004381,0.0012277,0.,0.,0.,0.1574585\Polar=119.6463885,
 -1.7836285,95.6003651,0.,0.,50.2740604\Quadrupole=-2.5527266,4.6429441
 ,-2.0902175,-1.9260288,0.,0.\PG=CS [SG(C6H3Cl2)]\NImag=0\\0.53012676,0
 .02297288,0.62397068,0.,0.,0.11977420,-0.25043376,-0.05738870,0.,0.654
 16814,-0.14494542,-0.18424140,0.,-0.00542964,0.76388195,0.,0.,-0.06195
 618,0.,0.,0.12469536,-0.06331424,-0.04359541,0.,-0.26696000,0.13917068
 ,0.,0.56811781,0.03007445,0.07877013,0.,0.06204107,-0.18120070,0.,-0.0
 5783803,0.62305533,0.,0.,0.00547262,0.,0.,-0.06276926,0.,0.,0.12657622
 ,-0.01260673,-0.03501532,0.,0.03278638,0.02874437,0.,-0.11754522,0.063
 14550,0.,0.73746783,-0.03632566,-0.06906083,0.,0.08551635,-0.02146378,
 0.,-0.01377738,-0.32640413,0.,-0.04370528,0.67147553,0.,0.,-0.00255438
 ,0.,0.,0.00674457,0.,0.,-0.06433440,0.,0.,0.12575726,0.03627832,0.0849
 5594,0.,-0.07916643,0.00064247,0.,0.04074114,-0.09259698,0.,-0.2686260
 3,-0.04781310,0.,0.62571567,0.03534645,-0.02407912,0.,-0.00194951,0.00
 201147,0.,-0.02378557,-0.02785009,0.,-0.13671697,-0.17956197,0.,-0.029
 93938,0.74175799,0.,0.,0.00545533,0.,0.,-0.00133070,0.,0.,0.00646906,0
 .,0.,-0.05949961,0.,0.,0.12647437,-0.09085716,-0.00310869,0.,0.0429884
 1,-0.02166711,0.,-0.02564367,0.03966963,0.,-0.06873712,-0.03207521,0.,
 -0.28770986,0.13770530,0.,0.45002449,0.02445180,-0.34905733,0.,-0.0867
 8981,-0.03600766,0.,0.03914387,-0.06933850,0.,0.03563464,0.07380086,0.
 ,0.09758463,-0.17275808,0.,-0.14750662,0.58283205,0.,0.,-0.05715429,0.
 ,0.,0.01424756,0.,0.,-0.00535122,0.,0.,0.01347886,0.,0.,-0.05195410,0.
 ,0.,0.07332337,-0.14970886,0.05016218,0.,-0.03969149,0.02188055,0.,0.0
 0175097,-0.00472389,0.,-0.00240271,0.00155322,0.,0.00155197,-0.0005983
 7,0.,-0.01402174,0.02001634,0.,0.20394305,0.06342500,-0.06279366,0.,-0
 .00559132,0.00682720,0.,-0.00109663,-0.00178760,0.,0.00171010,0.001486
 10,0.,-0.00328052,-0.00388352,0.,0.03240732,-0.01871778,0.,-0.08857232
 ,0.07776376,0.,0.,-0.02246575,0.,0.,0.00577595,0.,0.,0.00493392,0.,0.,
 -0.00016974,0.,0.,0.00360932,0.,0.,0.00210109,0.,0.,0.00993117,0.00241
 346,-0.02623378,0.,-0.05404474,0.00698666,0.,0.00311388,0.02647750,0.,
 -0.00457778,0.00183157,0.,-0.00082334,0.00066482,0.,-0.00369671,-0.003
 83823,0.,0.00114591,-0.00017119,0.,0.05545358,0.00297760,-0.01064704,0
 .,0.00823945,-0.34970497,0.,-0.00283975,-0.00949941,0.,0.00231372,0.00
 073538,0.,-0.00003202,0.00105689,0.,-0.00265125,-0.00090015,0.,0.00048
 440,0.00071503,0.,-0.00771597,0.36754385,0.,0.,0.00359385,0.,0.,-0.034
 97749,0.,0.,0.00288555,0.,0.,0.00555965,0.,0.,-0.00124777,0.,0.,0.0058
 7526,0.,0.,-0.00276783,0.,0.,0.02370437,0.00086849,0.00466370,0.,-0.03
 932927,-0.02471572,0.,-0.13878353,-0.06074736,0.,-0.01373178,-0.010678
 13,0.,0.00207216,-0.00094146,0.,-0.00111259,-0.00176872,0.,-0.00214755
 ,0.00010829,0.,0.00067020,-0.00064589,0.,0.19120435,0.00137111,-0.0016
 2399,0.,0.00216616,0.00462960,0.,-0.06078657,-0.07710256,0.,-0.0383579
 6,-0.02100056,0.,0.00472776,-0.00388137,0.,-0.00198175,0.00142503,0.,-
 0.00021438,0.00031477,0.,0.00059572,0.00108938,0.,0.09436848,0.0960694
 7,0.,0.,0.00486502,0.,0.,0.00459063,0.,0.,-0.02323010,0.,0.,0.00467985
 ,0.,0.,0.00433913,0.,0.,-0.00104465,0.,0.,-0.00016125,0.,0.,-0.0026661
 1,0.,0.,0.01139965,0.00078066,-0.00102325,0.,0.00118354,-0.00035246,0.
 ,0.00159978,-0.00298665,0.,-0.28702596,0.12298160,0.,-0.01641581,0.012
 42166,0.,-0.00371880,-0.00242269,0.,0.00002092,0.00008004,0.,0.0003050
 0,-0.00012046,0.,0.00095695,-0.00061716,0.,0.30143208,-0.00038061,-0.0
 0123764,0.,-0.00092008,-0.00526114,0.,0.02781184,-0.00956439,0.,0.1193
 8819,-0.11881493,0.,-0.01658804,0.01035619,0.,-0.00402306,0.00002455,0
 .,0.00000369,0.00019392,0.,0.00142204,-0.00030356,0.,0.00056575,0.0006
 7108,0.,-0.12802167,0.12322145,0.,0.,-0.00085184,0.,0.,0.00554993,0.,0
 .,0.00238034,0.,0.,-0.03533598,0.,0.,0.00381301,0.,0.,0.00689684,0.,0.
 ,-0.00041782,0.,0.,0.00031654,0.,0.,-0.00261728,0.,0.,0.02438840,-0.00
 354693,0.00361045,0.,-0.00150078,-0.00031439,0.,-0.00307693,-0.0025152
 4,0.,0.00499911,-0.02750797,0.,-0.05361779,0.00779303,0.,0.00248475,0.
 02549479,0.,-0.00044048,0.00098123,0.,0.00004053,-0.00000982,0.,-0.000
 66744,-0.00127140,0.,0.00088164,0.00074195,0.,0.05444434,0.00103241,0.
 00000021,0.,0.00010604,0.00052944,0.,-0.00240705,0.00092193,0.,0.00285
 900,-0.01119167,0.,0.00233926,-0.34316839,0.,0.00323144,-0.01130299,0.
 ,0.00000858,-0.00011823,0.,-0.00001915,-0.00008540,0.,-0.00020895,-0.0
 0059085,0.,0.00006105,0.00071447,0.,-0.00700262,0.36429150,0.,0.,0.005
 82142,0.,0.,-0.00057036,0.,0.,0.00696727,0.,0.,0.00567393,0.,0.,-0.036
 12803,0.,0.,-0.00041871,0.,0.,-0.00036907,0.,0.,-0.00027601,0.,0.,-0.0
 0015489,0.,0.,-0.00412215,0.,0.,0.02357659\\-0.00029353,0.00032797,0.,
 0.00006919,-0.00027224,0.,-0.00011412,0.00006543,0.,-0.00000809,-0.000
 20323,0.,0.00011253,0.00032492,0.,-0.00010141,-0.00036448,0.,0.0002144
 2,-0.00005688,0.,0.00000936,-0.00000432,0.,0.00015443,0.00011942,0.,-0
 .00003036,0.00005089,0.,-0.00001242,0.00001253,0.\\\@


 IT IS A SIMPLE TASK TO MAKE THINGS COMPLEX,
 BUT A COMPLEX TASK TO MAKE THEM SIMPLE.
 Job cpu time:       0 days  0 hours 24 minutes 30.2 seconds.
 Elapsed time:       0 days  0 hours  6 minutes  9.7 seconds.
 File lengths (MBytes):  RWF=    142 Int=      0 D2E=      0 Chk=     34 Scr=      1
 Normal termination of Gaussian 16 at Tue Dec  9 13:56:54 2025.
