 Entering Gaussian System, Link 0=g16
 Initial command:
 /share/software/user/restricted/gaussian/g16.B01/l1.exe "/home/users/jlapier/Chloroaromatics/Gau-14884.inp" -scrdir="/home/users/jlapier/Chloroaromatics/"
 Entering Link 1 = /share/software/user/restricted/gaussian/g16.B01/l1.exe PID=     14885.
  
 Copyright (c) 1988-2017, Gaussian, Inc.  All Rights Reserved.
  
 This is part of the Gaussian(R) 16 program.  It is based on
 the Gaussian(R) 09 system (copyright 2009, Gaussian, Inc.),
 the Gaussian(R) 03 system (copyright 2003, Gaussian, Inc.),
 the Gaussian(R) 98 system (copyright 1998, Gaussian, Inc.),
 the Gaussian(R) 94 system (copyright 1995, Gaussian, Inc.),
 the Gaussian 92(TM) system (copyright 1992, Gaussian, Inc.),
 the Gaussian 90(TM) system (copyright 1990, Gaussian, Inc.),
 the Gaussian 88(TM) system (copyright 1988, Gaussian, Inc.),
 the Gaussian 86(TM) system (copyright 1986, Carnegie Mellon
 University), and the Gaussian 82(TM) system (copyright 1983,
 Carnegie Mellon University). Gaussian is a federally registered
 trademark of Gaussian, Inc.
  
 This software contains proprietary and confidential information,
 including trade secrets, belonging to Gaussian, Inc.
  
 This software is provided under written license and may be
 used, copied, transmitted, or stored only in accord with that
 written license.
  
 The following legend is applicable only to US Government
 contracts under FAR:
  
                    RESTRICTED RIGHTS LEGEND
  
 Use, reproduction and disclosure by the US Government is
 subject to restrictions as set forth in subparagraphs (a)
 and (c) of the Commercial Computer Software - Restricted
 Rights clause in FAR 52.227-19.
  
 Gaussian, Inc.
 340 Quinnipiac St., Bldg. 40, Wallingford CT 06492
  
  
 ---------------------------------------------------------------
 Warning -- This program may not be used in any manner that
 competes with the business of Gaussian, Inc. or will provide
 assistance to any competitor of Gaussian, Inc.  The licensee
 of this program is prohibited from giving any competitor of
 Gaussian, Inc. access to this program.  By using this program,
 the user acknowledges that Gaussian, Inc. is engaged in the
 business of creating and licensing software in the field of
 computational chemistry and represents and warrants to the
 licensee that it is not a competitor of Gaussian, Inc. and that
 it will not use this program in any manner prohibited above.
 ---------------------------------------------------------------
  

 Cite this work as:
 Gaussian 16, Revision B.01,
 M. J. Frisch, G. W. Trucks, H. B. Schlegel, G. E. Scuseria, 
 M. A. Robb, J. R. Cheeseman, G. Scalmani, V. Barone, 
 G. A. Petersson, H. Nakatsuji, X. Li, M. Caricato, A. V. Marenich, 
 J. Bloino, B. G. Janesko, R. Gomperts, B. Mennucci, H. P. Hratchian, 
 J. V. Ortiz, A. F. Izmaylov, J. L. Sonnenberg, D. Williams-Young, 
 F. Ding, F. Lipparini, F. Egidi, J. Goings, B. Peng, A. Petrone, 
 T. Henderson, D. Ranasinghe, V. G. Zakrzewski, J. Gao, N. Rega, 
 G. Zheng, W. Liang, M. Hada, M. Ehara, K. Toyota, R. Fukuda, 
 J. Hasegawa, M. Ishida, T. Nakajima, Y. Honda, O. Kitao, H. Nakai, 
 T. Vreven, K. Throssell, J. A. Montgomery, Jr., J. E. Peralta, 
 F. Ogliaro, M. J. Bearpark, J. J. Heyd, E. N. Brothers, K. N. Kudin, 
 V. N. Staroverov, T. A. Keith, R. Kobayashi, J. Normand, 
 K. Raghavachari, A. P. Rendell, J. C. Burant, S. S. Iyengar, 
 J. Tomasi, M. Cossi, J. M. Millam, M. Klene, C. Adamo, R. Cammi, 
 J. W. Ochterski, R. L. Martin, K. Morokuma, O. Farkas, 
 J. B. Foresman, and D. J. Fox, Gaussian, Inc., Wallingford CT, 2016.
 
 ******************************************
 Gaussian 16:  ES64L-G16RevB.01 20-Dec-2017
                 9-Dec-2025 
 ******************************************
 %mem=8GB
 %nprocshare=4
 Will use up to    4 processors via shared memory.
 %oldchk=geometry_chks/_35ClBzNeutralRadical.chk
 %chk=frequency_chks/_35ClBzNeutralRadical_Freq.chk
 Copying data from "geometry_chks/_35ClBzNeutralRadical.chk" to current chk file "frequency_chks/_35ClBzNeutralRadical_Freq.chk"
 IOpt=  2 FromEx=T IUOpen= 4 IOptOp= 5 NList=   0 IFRang= 0 IUIn= 4 IUOut= 2.
 -------------------------------------------------------
 # opt freq 6-311++g(d,p) guess=read geom=allcheck m062x
 -------------------------------------------------------
 1/18=20,19=15,26=3,29=7,38=1/1,3;
 2/9=110,12=2,40=1/2;
 3/5=4,6=6,7=1111,11=2,14=-4,25=1,30=1,71=1,74=-55,116=-2/1,2,3;
 4/5=1/1;
 5/5=2,38=6/2;
 6/7=2,8=2,9=2,10=2,28=1/1;
 7//1,2,3,16;
 1/18=20,19=15,26=3/3(2);
 2/9=110/2;
 99//99;
 2/9=110/2;
 3/5=4,6=6,7=1111,11=2,14=-2,25=1,30=1,71=1,74=-55/1,2,3;
 4/5=5,16=3,69=1/1;
 5/5=2,38=5/2;
 7//1,2,3,16;
 1/18=20,19=15,26=3/3(-5);
 2/9=110/2;
 6/7=2,8=2,9=2,10=2,19=2,28=1/1;
 99/9=1/99;
 Structure from the checkpoint file:  "frequency_chks/_35ClBzNeutralRadical_Freq.chk"
 -------------------------------
 Neutral Radical (removed 1) _35
 -------------------------------
 Charge =  0 Multiplicity = 2
 Redundant internal coordinates found in file.  (old form).
 C,0,-3.2264579461,0.2163448842,0.
 C,0,-2.0115001525,0.9398076851,0.
 C,0,-0.7770527572,0.2651074405,0.
 C,0,-0.7327064318,-1.1409914974,0.
 C,0,-1.9269552285,-1.8981514566,0.
 C,0,-3.0714568461,-1.1449610917,0.
 H,0,-4.2063095121,0.7092649531,0.
 Cl,0,-2.0420780479,2.6318998443,0.
 H,0,0.161318917,0.8418012584,0.
 Cl,0,0.7631146273,-1.9325912092,0.
 H,0,-1.9297866259,-2.9950108046,0.
 Recover connectivity data from disk.

 GradGradGradGradGradGradGradGradGradGradGradGradGradGradGradGradGradGrad
 Berny optimization.
 Initialization pass.
                           ----------------------------
                           !    Initial Parameters    !
                           ! (Angstroms and Degrees)  !
 --------------------------                            --------------------------
 ! Name  Definition              Value          Derivative Info.                !
 --------------------------------------------------------------------------------
 ! R1    R(1,2)                  1.414          estimate D2E/DX2                !
 ! R2    R(1,6)                  1.3701         estimate D2E/DX2                !
 ! R3    R(1,7)                  1.0968         estimate D2E/DX2                !
 ! R4    R(2,3)                  1.4068         estimate D2E/DX2                !
 ! R5    R(2,8)                  1.6924         estimate D2E/DX2                !
 ! R6    R(3,4)                  1.4068         estimate D2E/DX2                !
 ! R7    R(3,9)                  1.1014         estimate D2E/DX2                !
 ! R8    R(4,5)                  1.414          estimate D2E/DX2                !
 ! R9    R(4,10)                 1.6924         estimate D2E/DX2                !
 ! R10   R(5,6)                  1.3701         estimate D2E/DX2                !
 ! R11   R(5,11)                 1.0969         estimate D2E/DX2                !
 ! A1    A(2,1,6)              114.2764         estimate D2E/DX2                !
 ! A2    A(2,1,7)              122.5228         estimate D2E/DX2                !
 ! A3    A(6,1,7)              123.2008         estimate D2E/DX2                !
 ! A4    A(1,2,3)              120.5685         estimate D2E/DX2                !
 ! A5    A(1,2,8)              119.737          estimate D2E/DX2                !
 ! A6    A(3,2,8)              119.6946         estimate D2E/DX2                !
 ! A7    A(2,3,4)              120.4657         estimate D2E/DX2                !
 ! A8    A(2,3,9)              119.7671         estimate D2E/DX2                !
 ! A9    A(4,3,9)              119.7672         estimate D2E/DX2                !
 ! A10   A(3,4,5)              120.5685         estimate D2E/DX2                !
 ! A11   A(3,4,10)             119.6946         estimate D2E/DX2                !
 ! A12   A(5,4,10)             119.737          estimate D2E/DX2                !
 ! A13   A(4,5,6)              114.2764         estimate D2E/DX2                !
 ! A14   A(4,5,11)             122.5228         estimate D2E/DX2                !
 ! A15   A(6,5,11)             123.2008         estimate D2E/DX2                !
 ! A16   A(1,6,5)              129.8445         estimate D2E/DX2                !
 ! D1    D(6,1,2,3)              0.0            estimate D2E/DX2                !
 ! D2    D(6,1,2,8)            180.0            estimate D2E/DX2                !
 ! D3    D(7,1,2,3)            180.0            estimate D2E/DX2                !
 ! D4    D(7,1,2,8)              0.0            estimate D2E/DX2                !
 ! D5    D(2,1,6,5)              0.0            estimate D2E/DX2                !
 ! D6    D(7,1,6,5)            180.0            estimate D2E/DX2                !
 ! D7    D(1,2,3,4)              0.0            estimate D2E/DX2                !
 ! D8    D(1,2,3,9)            180.0            estimate D2E/DX2                !
 ! D9    D(8,2,3,4)            180.0            estimate D2E/DX2                !
 ! D10   D(8,2,3,9)              0.0            estimate D2E/DX2                !
 ! D11   D(2,3,4,5)              0.0            estimate D2E/DX2                !
 ! D12   D(2,3,4,10)           180.0            estimate D2E/DX2                !
 ! D13   D(9,3,4,5)            180.0            estimate D2E/DX2                !
 ! D14   D(9,3,4,10)             0.0            estimate D2E/DX2                !
 ! D15   D(3,4,5,6)              0.0            estimate D2E/DX2                !
 ! D16   D(3,4,5,11)           180.0            estimate D2E/DX2                !
 ! D17   D(10,4,5,6)           180.0            estimate D2E/DX2                !
 ! D18   D(10,4,5,11)            0.0            estimate D2E/DX2                !
 ! D19   D(4,5,6,1)              0.0            estimate D2E/DX2                !
 ! D20   D(11,5,6,1)           180.0            estimate D2E/DX2                !
 --------------------------------------------------------------------------------
 Trust Radius=3.00D-01 FncErr=1.00D-07 GrdErr=1.00D-06 EigMax=2.50D+02 EigMin=1.00D-04
 Number of steps in this run=     57 maximum allowed number of steps=    100.
 GradGradGradGradGradGradGradGradGradGradGradGradGradGradGradGradGradGrad

                          Input orientation:                          
 ---------------------------------------------------------------------
 Center     Atomic      Atomic             Coordinates (Angstroms)
 Number     Number       Type             X           Y           Z
 ---------------------------------------------------------------------
      1          6           0       -3.226458    0.216345    0.000000
      2          6           0       -2.011500    0.939808    0.000000
      3          6           0       -0.777053    0.265107    0.000000
      4          6           0       -0.732706   -1.140991    0.000000
      5          6           0       -1.926955   -1.898151    0.000000
      6          6           0       -3.071457   -1.144961    0.000000
      7          1           0       -4.206310    0.709265    0.000000
      8         17           0       -2.042078    2.631900    0.000000
      9          1           0        0.161319    0.841801    0.000000
     10         17           0        0.763115   -1.932591    0.000000
     11          1           0       -1.929787   -2.995011    0.000000
 ---------------------------------------------------------------------
                    Distance matrix (angstroms):
                    1          2          3          4          5
     1  C    0.000000
     2  C    1.414044   0.000000
     3  C    2.449891   1.406798   0.000000
     4  C    2.839218   2.442343   1.406798   0.000000
     5  C    2.481895   2.839218   2.449891   1.414044   0.000000
     6  C    1.370102   2.338754   2.693062   2.338754   1.370102
     7  H    1.096850   2.206884   3.457901   3.935653   3.463246
     8  Cl   2.690290   1.692368   2.683653   3.993640   4.531514
     9  H    3.445029   2.175028   1.101416   2.175028   3.445030
    10  Cl   4.531514   3.993640   2.683653   1.692368   2.690290
    11  H    3.463259   3.935667   3.457914   2.206896   1.096863
                    6          7          8          9         10
     6  C    0.000000
     7  H    2.173947   0.000000
     8  Cl   3.914626   2.894896   0.000000
     9  H    3.794478   4.369639   2.838910   0.000000
    10  Cl   3.914626   5.628017   5.357582   2.838910   0.000000
    11  H    2.173958   4.347898   5.628031   4.369651   2.894901
                   11
    11  H    0.000000
 Stoichiometry    C6H3Cl2(2)
 Framework group  CS[SG(C6H3Cl2)]
 Deg. of freedom    19
 Full point group                 CS      NOp   2
 Largest Abelian subgroup         CS      NOp   2
 Largest concise Abelian subgroup C1      NOp   1
                         Standard orientation:                         
 ---------------------------------------------------------------------
 Center     Atomic      Atomic             Coordinates (Angstroms)
 Number     Number       Type             X           Y           Z
 ---------------------------------------------------------------------
      1          6           0        1.445575   -1.240947    0.000000
      2          6           0        0.031669   -1.221172    0.000000
      3          6           0       -0.666773   -0.000000    0.000000
      4          6           0        0.031669    1.221171    0.000000
      5          6           0        1.445575    1.240947    0.000000
      6          6           0        2.026289   -0.000000    0.000000
      7          1           0        2.022288   -2.173943    0.000000
      8         17           0       -0.828247   -2.678791    0.000000
      9          1           0       -1.768189   -0.000000    0.000000
     10         17           0       -0.828247    2.678791    0.000000
     11          1           0        2.022295    2.173954    0.000000
 ---------------------------------------------------------------------
 Rotational constants (GHZ):           3.0806420           0.8651638           0.6754666
 Standard basis: 6-311++G(d,p) (5D, 7F)
 There are   166 symmetry adapted cartesian basis functions of A'  symmetry.
 There are    55 symmetry adapted cartesian basis functions of A"  symmetry.
 There are   158 symmetry adapted basis functions of A'  symmetry.
 There are    55 symmetry adapted basis functions of A"  symmetry.
   213 basis functions,   349 primitive gaussians,   221 cartesian basis functions
    37 alpha electrons       36 beta electrons
       nuclear repulsion energy       442.2310121904 Hartrees.
 NAtoms=   11 NActive=   11 NUniq=   11 SFac= 1.00D+00 NAtFMM=   60 NAOKFM=F Big=F
 Integral buffers will be    131072 words long.
 Raffenetti 2 integral format.
 Two-electron integral symmetry is turned on.
 One-electron integrals computed using PRISM.
 NBasis=   213 RedAO= T EigKep=  1.70D-06  NBF=   158    55
 NBsUse=   213 1.00D-06 EigRej= -1.00D+00 NBFU=   158    55
 Initial guess from the checkpoint file:  "frequency_chks/_35ClBzNeutralRadical_Freq.chk"
 B after Tr=     0.000000   -0.000000    0.000000
         Rot=    1.000000    0.000000   -0.000000   -0.000000 Ang=   0.00 deg.
 Initial guess orbital symmetries:
 Alpha Orbitals:
       Occupied  (A') (A') (A') (A') (A') (A') (A') (A') (A') (A')
                 (A') (A") (A') (A") (A') (A') (A") (A') (A') (A")
                 (A") (A") (A") (A') (A') (A") (A') (A') (A') (A')
                 (A') (A') (A') (A') (A') (A') (A')
       Virtual   (A') (A') (A') (A') (A') (A') (A') (A') (A') (A')
                 (A') (A') (A') (A') (A') (A') (A') (A') (A') (A')
                 (A') (A') (A') (A') (A') (A') (A') (A') (A') (A')
                 (A') (A') (A') (A') (A') (A') (A') (A') (A') (A')
                 (A') (A') (A') (A') (A') (A') (A') (A') (A') (A')
                 (A') (A') (A') (A') (A') (A') (A') (A') (A') (A')
                 (A') (A') (A') (A') (A') (A') (A') (A') (A') (A')
                 (A') (A') (A') (A') (A') (A') (A') (A') (A') (A')
                 (A') (A') (A') (A') (A') (A') (A') (A') (A') (A')
                 (A') (A') (A') (A') (A') (A') (A') (A') (A') (A')
                 (A') (A') (A') (A') (A') (A') (A') (A') (A') (A')
                 (A') (A') (A') (A') (A') (A') (A') (A') (A') (A')
                 (A') (A') (A') (A') (A') (A') (A') (A') (A') (A")
                 (A") (A") (A") (A") (A") (A") (A") (A") (A") (A")
                 (A") (A") (A") (A") (A") (A") (A") (A") (A") (A")
                 (A") (A") (A") (A") (A") (A") (A") (A") (A") (A")
                 (A") (A") (A") (A") (A") (A") (A") (A") (A") (A")
                 (A") (A") (A") (A") (A") (A")
 Beta  Orbitals:
       Occupied  (A') (A') (A') (A') (A') (A') (A') (A') (A') (A')
                 (A') (A") (A') (A") (A') (A') (A") (A') (A") (A")
                 (A") (A') (A") (A') (A') (A") (A') (A') (A') (A')
                 (A') (A') (A') (A') (A') (A')
       Virtual   (A') (A') (A') (A') (A') (A') (A') (A') (A') (A')
                 (A') (A') (A') (A') (A') (A') (A') (A') (A') (A')
                 (A') (A') (A') (A') (A') (A') (A') (A') (A') (A')
                 (A') (A') (A') (A') (A') (A') (A') (A') (A') (A')
                 (A') (A') (A') (A') (A') (A') (A') (A') (A') (A')
                 (A') (A') (A') (A') (A') (A') (A') (A') (A') (A')
                 (A') (A') (A') (A') (A') (A') (A') (A') (A') (A')
                 (A') (A') (A') (A') (A') (A') (A') (A') (A') (A')
                 (A') (A') (A') (A') (A') (A') (A') (A') (A') (A')
                 (A') (A') (A') (A') (A') (A') (A') (A') (A') (A')
                 (A') (A') (A') (A') (A') (A') (A') (A') (A') (A')
                 (A') (A') (A') (A') (A') (A') (A') (A') (A') (A')
                 (A') (A') (A') (A') (A') (A') (A') (A') (A') (A')
                 (A") (A") (A") (A") (A") (A") (A") (A") (A") (A")
                 (A") (A") (A") (A") (A") (A") (A") (A") (A") (A")
                 (A") (A") (A") (A") (A") (A") (A") (A") (A") (A")
                 (A") (A") (A") (A") (A") (A") (A") (A") (A") (A")
                 (A") (A") (A") (A") (A") (A") (A")
 Initial guess <Sx>= 0.0000 <Sy>= 0.0000 <Sz>= 0.5000 <S**2>= 0.7500 S= 0.5000
 Keep R1 and R2 ints in memory in symmetry-blocked form, NReq=411615841.
 Requested convergence on RMS density matrix=1.00D-08 within 128 cycles.
 Requested convergence on MAX density matrix=1.00D-06.
 Requested convergence on             energy=1.00D-06.
 No special actions if energy rises.
 SCF Done:  E(UM062X) =  -1150.70884857     A.U. after   24 cycles
            NFock= 24  Conv=0.49D-08     -V/T= 2.0025
 <Sx>= 0.0000 <Sy>= 0.0000 <Sz>= 0.5000 <S**2>= 0.7624 S= 0.5062
 <L.S>=  0.00000000000    
 Annihilation of the first spin contaminant:
 S**2 before annihilation     0.7624,   after     0.7501

 **********************************************************************

            Population analysis using the SCF Density.

 **********************************************************************

 Orbital symmetries:
 Alpha Orbitals:
       Occupied  (A') (A') (A') (A') (A') (A') (A') (A') (A') (A')
                 (A') (A') (A") (A") (A') (A') (A') (A') (A') (A')
                 (A') (A') (A') (A') (A') (A') (A') (A") (A') (A')
                 (A") (A') (A") (A') (A") (A') (A")
       Virtual   (A") (A") (A') (A') (A') (A') (A') (A") (A') (A')
                 (A') (A") (A") (A') (A') (A') (A") (A") (A') (A')
                 (A') (A") (A') (A") (A') (A') (A') (A') (A") (A")
                 (A') (A') (A') (A') (A') (A') (A') (A') (A') (A')
                 (A') (A') (A') (A') (A') (A') (A') (A') (A') (A")
                 (A") (A') (A') (A') (A') (A") (A') (A') (A") (A')
                 (A") (A") (A") (A') (A') (A') (A') (A") (A') (A')
                 (A') (A') (A") (A') (A') (A') (A') (A") (A') (A")
                 (A') (A") (A') (A') (A') (A') (A') (A') (A") (A')
                 (A") (A") (A') (A") (A') (A') (A') (A') (A") (A")
                 (A') (A') (A') (A') (A') (A") (A") (A") (A') (A')
                 (A') (A') (A") (A') (A') (A") (A") (A') (A") (A')
                 (A') (A') (A") (A') (A') (A") (A") (A") (A') (A')
                 (A') (A') (A') (A') (A') (A') (A") (A') (A') (A')
                 (A') (A') (A") (A") (A") (A") (A') (A") (A') (A')
                 (A') (A') (A') (A') (A') (A') (A') (A') (A') (A')
                 (A') (A') (A') (A') (A') (A') (A') (A') (A") (A")
                 (A') (A') (A') (A') (A') (A')
 Beta  Orbitals:
       Occupied  (A') (A') (A') (A') (A') (A') (A') (A') (A') (A')
                 (A') (A') (A") (A") (A') (A') (A') (A') (A') (A')
                 (A') (A') (A') (A') (A') (A') (A') (A") (A') (A')
                 (A") (A') (A") (A') (A") (A")
       Virtual   (A') (A") (A') (A") (A') (A') (A') (A') (A") (A')
                 (A") (A') (A") (A') (A') (A') (A') (A") (A") (A')
                 (A') (A') (A') (A") (A") (A') (A') (A') (A') (A")
                 (A') (A") (A') (A') (A') (A') (A') (A') (A') (A')
                 (A') (A') (A') (A') (A') (A') (A') (A') (A') (A')
                 (A") (A") (A') (A') (A') (A') (A") (A') (A') (A')
                 (A") (A") (A") (A') (A") (A') (A') (A") (A') (A')
                 (A') (A') (A') (A") (A') (A') (A') (A') (A") (A')
                 (A") (A') (A") (A') (A') (A') (A') (A') (A') (A")
                 (A') (A") (A") (A') (A") (A') (A') (A') (A') (A")
                 (A") (A') (A') (A') (A') (A') (A") (A") (A") (A')
                 (A') (A') (A') (A") (A') (A') (A") (A") (A') (A")
                 (A') (A') (A') (A") (A') (A') (A") (A") (A") (A')
                 (A') (A') (A') (A') (A') (A') (A') (A") (A') (A')
                 (A') (A') (A') (A") (A") (A") (A") (A') (A") (A')
                 (A') (A') (A') (A') (A') (A') (A') (A') (A') (A')
                 (A') (A') (A') (A') (A') (A') (A') (A') (A') (A")
                 (A") (A') (A') (A') (A') (A') (A')
 The electronic state is 2-A'.
 Alpha  occ. eigenvalues -- -102.69313-102.69313 -10.63583 -10.63583 -10.59497
 Alpha  occ. eigenvalues --  -10.58033 -10.58020 -10.58016  -9.83663  -9.83663
 Alpha  occ. eigenvalues --   -7.56191  -7.56191  -7.55503  -7.55503  -7.55481
 Alpha  occ. eigenvalues --   -7.55481  -1.03628  -1.00408  -0.94863  -0.85633
 Alpha  occ. eigenvalues --   -0.84762  -0.70114  -0.70104  -0.61481  -0.57852
 Alpha  occ. eigenvalues --   -0.54894  -0.52819  -0.50507  -0.49006  -0.46799
 Alpha  occ. eigenvalues --   -0.45320  -0.41061  -0.40851  -0.39025  -0.32872
 Alpha  occ. eigenvalues --   -0.32178  -0.31164
 Alpha virt. eigenvalues --   -0.01570  -0.00778  -0.00174   0.01428   0.01430
 Alpha virt. eigenvalues --    0.03448   0.03840   0.05029   0.05810   0.06718
 Alpha virt. eigenvalues --    0.08096   0.08144   0.08875   0.09005   0.10501
 Alpha virt. eigenvalues --    0.11333   0.11761   0.11984   0.12064   0.13109
 Alpha virt. eigenvalues --    0.13197   0.13775   0.13931   0.14796   0.14880
 Alpha virt. eigenvalues --    0.15276   0.16403   0.17201   0.17851   0.18976
 Alpha virt. eigenvalues --    0.19299   0.20163   0.21416   0.22549   0.22864
 Alpha virt. eigenvalues --    0.23908   0.25173   0.26191   0.27002   0.27674
 Alpha virt. eigenvalues --    0.28293   0.28744   0.30307   0.31670   0.34488
 Alpha virt. eigenvalues --    0.35364   0.35406   0.44983   0.45630   0.47020
 Alpha virt. eigenvalues --    0.48327   0.49196   0.49716   0.51791   0.52162
 Alpha virt. eigenvalues --    0.54800   0.56533   0.56866   0.58936   0.59565
 Alpha virt. eigenvalues --    0.61063   0.63002   0.63566   0.64316   0.65616
 Alpha virt. eigenvalues --    0.68541   0.69281   0.69513   0.73432   0.76409
 Alpha virt. eigenvalues --    0.76705   0.78869   0.83108   0.84557   0.86907
 Alpha virt. eigenvalues --    0.87251   0.87908   0.87940   0.90684   0.90908
 Alpha virt. eigenvalues --    0.91390   0.91953   0.93716   0.96448   0.97071
 Alpha virt. eigenvalues --    0.98721   0.99977   1.02318   1.02956   1.08473
 Alpha virt. eigenvalues --    1.11803   1.12497   1.14415   1.18170   1.20963
 Alpha virt. eigenvalues --    1.21457   1.27655   1.28197   1.34619   1.37864
 Alpha virt. eigenvalues --    1.43640   1.51294   1.53550   1.55616   1.57333
 Alpha virt. eigenvalues --    1.61075   1.63223   1.63234   1.70102   1.70129
 Alpha virt. eigenvalues --    1.82257   1.84666   1.88925   1.89655   1.90671
 Alpha virt. eigenvalues --    1.93682   1.97432   1.98454   1.99824   2.02124
 Alpha virt. eigenvalues --    2.05902   2.10773   2.15750   2.27231   2.27825
 Alpha virt. eigenvalues --    2.29476   2.31700   2.32381   2.40219   2.41096
 Alpha virt. eigenvalues --    2.47186   2.49485   2.56178   2.57870   2.59224
 Alpha virt. eigenvalues --    2.66273   2.68281   2.69616   2.73376   2.73785
 Alpha virt. eigenvalues --    2.77138   2.78887   2.80020   2.83156   2.91040
 Alpha virt. eigenvalues --    2.92522   2.98749   3.09658   3.15667   3.21573
 Alpha virt. eigenvalues --    3.28229   3.33989   3.41482   3.53972   3.68451
 Alpha virt. eigenvalues --    3.75098   3.85892   4.10757   4.12146   4.76226
 Alpha virt. eigenvalues --    9.95580   9.99407  23.50009  23.89742  23.90019
 Alpha virt. eigenvalues --   24.07990  24.09585  24.22773  25.92479  25.92558
 Alpha virt. eigenvalues --   26.19471  26.26467  26.73012  26.73262 216.05377
 Alpha virt. eigenvalues --  216.09872
  Beta  occ. eigenvalues -- -102.69294-102.69294 -10.63480 -10.63479 -10.58535
  Beta  occ. eigenvalues --  -10.58065 -10.58045 -10.58035  -9.83656  -9.83656
  Beta  occ. eigenvalues --   -7.56154  -7.56154  -7.55490  -7.55490  -7.55471
  Beta  occ. eigenvalues --   -7.55471  -1.03257  -1.00245  -0.93797  -0.84808
  Beta  occ. eigenvalues --   -0.84337  -0.69713  -0.68111  -0.60787  -0.57093
  Beta  occ. eigenvalues --   -0.54243  -0.52411  -0.50160  -0.47950  -0.46214
  Beta  occ. eigenvalues --   -0.45228  -0.40428  -0.39888  -0.38938  -0.32068
  Beta  occ. eigenvalues --   -0.31291
  Beta virt. eigenvalues --   -0.06831  -0.01607   0.00069   0.00375   0.01546
  Beta virt. eigenvalues --    0.01618   0.03379   0.03889   0.05303   0.05848
  Beta virt. eigenvalues --    0.08178   0.08192   0.08600   0.08659   0.08938
  Beta virt. eigenvalues --    0.10139   0.11286   0.11781   0.12015   0.12579
  Beta virt. eigenvalues --    0.12963   0.12978   0.13763   0.13764   0.14770
  Beta virt. eigenvalues --    0.14873   0.15522   0.16932   0.17060   0.17933
  Beta virt. eigenvalues --    0.19564   0.19867   0.20235   0.21324   0.22677
  Beta virt. eigenvalues --    0.23214   0.24170   0.24976   0.25504   0.27148
  Beta virt. eigenvalues --    0.27762   0.28362   0.28894   0.30504   0.32313
  Beta virt. eigenvalues --    0.34892   0.35547   0.35737   0.45120   0.45601
  Beta virt. eigenvalues --    0.47024   0.48325   0.49240   0.49835   0.51768
  Beta virt. eigenvalues --    0.52459   0.55064   0.56716   0.56991   0.57544
  Beta virt. eigenvalues --    0.59049   0.60976   0.63195   0.63568   0.63670
  Beta virt. eigenvalues --    0.64209   0.68616   0.69361   0.70604   0.73954
  Beta virt. eigenvalues --    0.76277   0.76872   0.78091   0.83258   0.84904
  Beta virt. eigenvalues --    0.87000   0.87114   0.87398   0.88026   0.90580
  Beta virt. eigenvalues --    0.90956   0.91729   0.91988   0.92824   0.96922
  Beta virt. eigenvalues --    0.97136   0.98706   0.99882   1.02441   1.03410
  Beta virt. eigenvalues --    1.08454   1.12202   1.12906   1.14849   1.19706
  Beta virt. eigenvalues --    1.21018   1.21586   1.27199   1.28247   1.35557
  Beta virt. eigenvalues --    1.38170   1.45532   1.51949   1.54717   1.55751
  Beta virt. eigenvalues --    1.57379   1.61837   1.63299   1.63409   1.70170
  Beta virt. eigenvalues --    1.70478   1.83760   1.85352   1.88981   1.90500
  Beta virt. eigenvalues --    1.90943   1.93983   1.97643   1.98045   2.00121
  Beta virt. eigenvalues --    2.02571   2.05954   2.10848   2.16071   2.27949
  Beta virt. eigenvalues --    2.28269   2.29510   2.31743   2.32793   2.40367
  Beta virt. eigenvalues --    2.41423   2.47253   2.50168   2.56293   2.58208
  Beta virt. eigenvalues --    2.59320   2.66614   2.68379   2.70187   2.73328
  Beta virt. eigenvalues --    2.73907   2.77103   2.79370   2.80475   2.83226
  Beta virt. eigenvalues --    2.91195   2.92311   3.01462   3.09771   3.15887
  Beta virt. eigenvalues --    3.22415   3.28345   3.34227   3.42121   3.54719
  Beta virt. eigenvalues --    3.68760   3.74962   3.85937   4.10700   4.12706
  Beta virt. eigenvalues --    4.76407   9.95589   9.99415  23.50155  23.89788
  Beta virt. eigenvalues --   23.90300  24.07980  24.09570  24.23447  25.92521
  Beta virt. eigenvalues --   25.92601  26.19507  26.26505  26.73114  26.73359
  Beta virt. eigenvalues --  216.05406 216.09901
          Condensed to atoms (all electrons):
               1          2          3          4          5          6
     1  C   10.839379  -0.139794  -4.399449  -1.118204   0.543599   0.774873
     2  C   -0.139794  12.164134  -2.904398  -0.706257  -1.118198  -0.530773
     3  C   -4.399449  -2.904398  23.155599  -2.904410  -4.399434  -2.727204
     4  C   -1.118204  -0.706257  -2.904410  12.164141  -0.139796  -0.530758
     5  C    0.543599  -1.118198  -4.399434  -0.139796  10.839369   0.774866
     6  C    0.774873  -0.530773  -2.727204  -0.530758   0.774866   7.629650
     7  H    0.382537  -0.063190  -0.064385  -0.004144   0.006521   0.070812
     8  Cl  -0.148501  -0.869713   0.197368  -0.110682   0.086695   0.168861
     9  H   -0.058800  -0.086167   0.589489  -0.086167  -0.058800  -0.015148
    10  Cl   0.086695  -0.110682   0.197368  -0.869712  -0.148504   0.168860
    11  H    0.006522  -0.004145  -0.064381  -0.063188   0.382532   0.070810
               7          8          9         10         11
     1  C    0.382537  -0.148501  -0.058800   0.086695   0.006522
     2  C   -0.063190  -0.869713  -0.086167  -0.110682  -0.004145
     3  C   -0.064385   0.197368   0.589489   0.197368  -0.064381
     4  C   -0.004144  -0.110682  -0.086167  -0.869712  -0.063188
     5  C    0.006521   0.086695  -0.058800  -0.148504   0.382532
     6  C    0.070812   0.168861  -0.015148   0.168860   0.070810
     7  H    0.467892  -0.001444  -0.001388  -0.002721  -0.000088
     8  Cl  -0.001444  17.345534   0.012635  -0.023263  -0.002721
     9  H   -0.001388   0.012635   0.472399   0.012635  -0.001388
    10  Cl  -0.002721  -0.023263   0.012635  17.345535  -0.001444
    11  H   -0.000088  -0.002721  -0.001388  -0.001444   0.467890
          Atomic-Atomic Spin Densities.
               1          2          3          4          5          6
     1  C    0.672870  -0.254822  -0.295617  -0.099072   0.564599  -0.581694
     2  C   -0.254822   0.176883   0.116028   0.026363  -0.099069   0.075586
     3  C   -0.295617   0.116028   0.059116   0.116029  -0.295618   0.375212
     4  C   -0.099072   0.026363   0.116029   0.176881  -0.254822   0.075589
     5  C    0.564599  -0.099069  -0.295618  -0.254822   0.672870  -0.581695
     6  C   -0.581694   0.075586   0.375212   0.075589  -0.581695   1.430020
     7  H   -0.001504  -0.008049   0.000825  -0.003507  -0.010953   0.012862
     8  Cl   0.073221  -0.022588  -0.051801   0.000308   0.025407  -0.036102
     9  H    0.005086   0.002380  -0.005775   0.002380   0.005086  -0.009592
    10  Cl   0.025406   0.000308  -0.051800  -0.022587   0.073220  -0.036101
    11  H   -0.010953  -0.003507   0.000824  -0.008049  -0.001504   0.012861
               7          8          9         10         11
     1  C   -0.001504   0.073221   0.005086   0.025406  -0.010953
     2  C   -0.008049  -0.022588   0.002380   0.000308  -0.003507
     3  C    0.000825  -0.051801  -0.005775  -0.051800   0.000824
     4  C   -0.003507   0.000308   0.002380  -0.022587  -0.008049
     5  C   -0.010953   0.025407   0.005086   0.073220  -0.001504
     6  C    0.012862  -0.036102  -0.009592  -0.036101   0.012861
     7  H    0.036546  -0.001119  -0.000769  -0.000403   0.000550
     8  Cl  -0.001119   0.025648   0.000825   0.001631  -0.000403
     9  H   -0.000769   0.000825   0.002880   0.000825  -0.000769
    10  Cl  -0.000403   0.001631   0.000825   0.025647  -0.001118
    11  H    0.000550  -0.000403  -0.000769  -0.001118   0.036546
 Mulliken charges and spin densities:
               1          2
     1  C   -0.768858   0.097520
     2  C    0.369182   0.009513
     3  C   -0.676163  -0.032578
     4  C    0.369177   0.009513
     5  C   -0.768851   0.097520
     6  C    0.145151   0.736944
     7  H    0.209598   0.024477
     8  Cl   0.345231   0.015028
     9  H    0.220701   0.002557
    10  Cl   0.345232   0.015028
    11  H    0.209601   0.024478
 Sum of Mulliken charges =  -0.00000   1.00000
 Mulliken charges and spin densities with hydrogens summed into heavy atoms:
               1          2
     1  C   -0.559260   0.121997
     2  C    0.369182   0.009513
     3  C   -0.455463  -0.030022
     4  C    0.369177   0.009513
     5  C   -0.559250   0.121998
     6  C    0.145151   0.736944
     8  Cl   0.345231   0.015028
    10  Cl   0.345232   0.015028
 Electronic spatial extent (au):  <R**2>=           1478.9770
 Charge=             -0.0000 electrons
 Dipole moment (field-independent basis, Debye):
    X=              0.6488    Y=              0.0000    Z=              0.0000  Tot=              0.6488
 Quadrupole moment (field-independent basis, Debye-Ang):
   XX=            -57.1385   YY=            -59.3878   ZZ=            -62.7644
   XY=              0.0000   XZ=              0.0000   YZ=              0.0000
 Traceless Quadrupole moment (field-independent basis, Debye-Ang):
   XX=              2.6251   YY=              0.3757   ZZ=             -3.0008
   XY=              0.0000   XZ=              0.0000   YZ=              0.0000
 Octapole moment (field-independent basis, Debye-Ang**2):
  XXX=            -13.6991  YYY=              0.0000  ZZZ=              0.0000  XYY=              5.0846
  XXY=              0.0000  XXZ=              0.0000  XZZ=             -5.9174  YZZ=             -0.0000
  YYZ=              0.0000  XYZ=              0.0000
 Hexadecapole moment (field-independent basis, Debye-Ang**3):
 XXXX=           -502.4418 YYYY=          -1348.8316 ZZZZ=            -73.1896 XXXY=             -0.0000
 XXXZ=              0.0000 YYYX=              0.0001 YYYZ=              0.0000 ZZZX=              0.0000
 ZZZY=              0.0000 XXYY=           -283.6428 XXZZ=           -102.9076 YYZZ=           -251.5348
 XXYZ=              0.0000 YYXZ=              0.0000 ZZXY=             -0.0001
 N-N= 4.422310121904D+02 E-N=-3.606294700460D+03  KE= 1.147820811735D+03
 Symmetry A'   KE= 1.049527797501D+03
 Symmetry A"   KE= 9.829301423418D+01
 Symmetry A'   SP= 9.999999999999D-01
 Symmetry A"   SP= 1.225361907211D-14
                          Isotropic Fermi Contact Couplings
        Atom                 a.u.       MegaHertz       Gauss      10(-4) cm-1
     1  C(13)              0.00935      10.50566       3.74868       3.50431
     2  C(13)              0.07288      81.92862      29.23417      27.32844
     3  C(13)             -0.00883      -9.92546      -3.54165      -3.31078
     4  C(13)              0.07288      81.92860      29.23416      27.32844
     5  C(13)              0.00934      10.50482       3.74838       3.50403
     6  C(13)              0.42163     473.99201     169.13213     158.10671
     7  H(1)               0.01235      55.19142      19.69367      18.40987
     8  Cl(35)             0.00362       1.58865       0.56687       0.52992
     9  H(1)               0.00054       2.41378       0.86130       0.80515
    10  Cl(35)             0.00362       1.58862       0.56686       0.52991
    11  H(1)               0.01235      55.19225      19.69397      18.41015
 --------------------------------------------------------
       Center         ----  Spin Dipole Couplings  ----
                      3XX-RR        3YY-RR        3ZZ-RR
 --------------------------------------------------------
     1   Atom        0.032639      0.064850     -0.097490
     2   Atom        0.037060     -0.034669     -0.002391
     3   Atom        0.033729      0.019244     -0.052974
     4   Atom        0.037060     -0.034669     -0.002391
     5   Atom        0.032639      0.064851     -0.097490
     6   Atom        0.973554     -0.572385     -0.401169
     7   Atom       -0.009199      0.020966     -0.011768
     8   Atom        0.036144     -0.009407     -0.026738
     9   Atom        0.001314      0.001206     -0.002520
    10   Atom        0.036144     -0.009406     -0.026738
    11   Atom       -0.009199      0.020966     -0.011767
 --------------------------------------------------------
                        XY            XZ            YZ
 --------------------------------------------------------
     1   Atom        0.050792      0.000000      0.000000
     2   Atom       -0.006353      0.000000      0.000000
     3   Atom       -0.000000      0.000000      0.000000
     4   Atom        0.006353      0.000000      0.000000
     5   Atom       -0.050792      0.000000      0.000000
     6   Atom       -0.000000      0.000000      0.000000
     7   Atom        0.006058      0.000000      0.000000
     8   Atom        0.070853      0.000000      0.000000
     9   Atom       -0.000000      0.000000      0.000000
    10   Atom       -0.070853      0.000000      0.000000
    11   Atom       -0.006058      0.000000      0.000000
 --------------------------------------------------------


 ---------------------------------------------------------------------------------
              Anisotropic Spin Dipole Couplings in Principal Axis System
 ---------------------------------------------------------------------------------

       Atom             a.u.   MegaHertz   Gauss  10(-4) cm-1        Axes

              Baa    -0.0975   -13.082    -4.668    -4.364  0.0000  0.0000  1.0000
     1 C(13)  Bbb    -0.0045    -0.609    -0.217    -0.203  0.8069 -0.5907 -0.0000
              Bcc     0.1020    13.691     4.885     4.567  0.5907  0.8069  0.0000
 
              Baa    -0.0352    -4.727    -1.687    -1.577  0.0876  0.9962  0.0000
     2 C(13)  Bbb    -0.0024    -0.321    -0.114    -0.107  0.0000  0.0000  1.0000
              Bcc     0.0376     5.048     1.801     1.684  0.9962 -0.0876 -0.0000
 
              Baa    -0.0530    -7.109    -2.537    -2.371  0.0000  0.0000  1.0000
     3 C(13)  Bbb     0.0192     2.582     0.921     0.861  0.0000  1.0000  0.0000
              Bcc     0.0337     4.526     1.615     1.510  1.0000 -0.0000 -0.0000
 
              Baa    -0.0352    -4.727    -1.687    -1.577 -0.0876  0.9962 -0.0000
     4 C(13)  Bbb    -0.0024    -0.321    -0.114    -0.107  0.0000  0.0000  1.0000
              Bcc     0.0376     5.048     1.801     1.684  0.9962  0.0876  0.0000
 
              Baa    -0.0975   -13.082    -4.668    -4.364  0.0000  0.0000  1.0000
     5 C(13)  Bbb    -0.0045    -0.609    -0.217    -0.203  0.8069  0.5907  0.0000
              Bcc     0.1020    13.691     4.885     4.567 -0.5907  0.8069  0.0000
 
              Baa    -0.5724   -76.809   -27.407   -25.621  0.0000  1.0000  0.0000
     6 C(13)  Bbb    -0.4012   -53.833   -19.209   -17.957  0.0000  0.0000  1.0000
              Bcc     0.9736   130.642    46.616    43.577  1.0000 -0.0000 -0.0000
 
              Baa    -0.0118    -6.279    -2.240    -2.094  0.0000  0.0000  1.0000
     7 H(1)   Bbb    -0.0104    -5.533    -1.974    -1.846  0.9818 -0.1898 -0.0000
              Bcc     0.0221    11.812     4.215     3.940  0.1898  0.9818  0.0000
 
              Baa    -0.0611    -3.195    -1.140    -1.066 -0.5891  0.8081 -0.0000
     8 Cl(35) Bbb    -0.0267    -1.399    -0.499    -0.467  0.0000  0.0000  1.0000
              Bcc     0.0878     4.595     1.640     1.533  0.8081  0.5891  0.0000
 
              Baa    -0.0025    -1.344    -0.480    -0.448  0.0000  0.0000  1.0000
     9 H(1)   Bbb     0.0012     0.643     0.230     0.215  0.0000  1.0000  0.0000
              Bcc     0.0013     0.701     0.250     0.234  1.0000 -0.0000 -0.0000
 
              Baa    -0.0611    -3.195    -1.140    -1.066  0.5891  0.8081  0.0000
    10 Cl(35) Bbb    -0.0267    -1.399    -0.499    -0.467  0.0000  0.0000  1.0000
              Bcc     0.0878     4.595     1.640     1.533  0.8081 -0.5891 -0.0000
 
              Baa    -0.0118    -6.278    -2.240    -2.094  0.0000  0.0000  1.0000
    11 H(1)   Bbb    -0.0104    -5.533    -1.974    -1.846  0.9818  0.1898  0.0000
              Bcc     0.0221    11.811     4.215     3.940 -0.1898  0.9818  0.0000
 

 ---------------------------------------------------------------------------------

 Calling FoFJK, ICntrl=      2127 FMM=F ISym2X=1 I1Cent= 0 IOpClX= 1 NMat=1 NMatS=1 NMatT=0.
 ***** Axes restored to original set *****
 -------------------------------------------------------------------
 Center     Atomic                   Forces (Hartrees/Bohr)
 Number     Number              X              Y              Z
 -------------------------------------------------------------------
      1        6           0.008758431    0.005602028   -0.000000000
      2        6          -0.001507314   -0.035265293   -0.000000000
      3        6           0.002348729    0.001443506   -0.000000000
      4        6          -0.032143501    0.014584245   -0.000000000
      5        6           0.008953996    0.005275772   -0.000000000
      6        6          -0.007589270   -0.004664601   -0.000000000
      7        1           0.009684407   -0.002989352   -0.000000000
      8       17           0.000267457    0.022930596   -0.000000000
      9        1          -0.011059204   -0.006796666   -0.000000000
     10       17           0.020578824   -0.010119137   -0.000000000
     11        1           0.001707447    0.009998901   -0.000000000
 -------------------------------------------------------------------
 Cartesian Forces:  Max     0.035265293 RMS     0.011309370

 GradGradGradGradGradGradGradGradGradGradGradGradGradGradGradGradGradGrad
 Berny optimization.
 FormGI is forming the generalized inverse of G from B-inverse, IUseBI=4.
 Internal  Forces:  Max     0.022922045 RMS     0.007016587
 Search for a local minimum.
 Step number   1 out of a maximum of   57
 All quantities printed in internal units (Hartrees-Bohrs-Radians)
 Mixed Optimization -- RFO/linear search
 Second derivative matrix not updated -- first step.
 ITU=  0
     Eigenvalues ---    0.01942   0.01948   0.01972   0.01993   0.01999
     Eigenvalues ---    0.02080   0.02129   0.02400   0.16000   0.16000
     Eigenvalues ---    0.16000   0.23274   0.23491   0.23503   0.25000
     Eigenvalues ---    0.25000   0.33526   0.34031   0.34033   0.36825
     Eigenvalues ---    0.36825   0.40502   0.42164   0.43371   0.44331
     Eigenvalues ---    0.49178   0.50555
 RFO step:  Lambda=-6.26194991D-03 EMin= 1.94224827D-02
 Linear search not attempted -- first point.
 Iteration  1 RMS(Cart)=  0.02132748 RMS(Int)=  0.00017562
 Iteration  2 RMS(Cart)=  0.00027501 RMS(Int)=  0.00003086
 Iteration  3 RMS(Cart)=  0.00000005 RMS(Int)=  0.00003086
 ClnCor:  largest displacement from symmetrization is 2.70D-09 for atom     9.
 Variable       Old X    -DE/DX   Delta X   Delta X   Delta X     New X
                                 (Linear)    (Quad)   (Total)
    R1        2.67216  -0.01266   0.00000  -0.02879  -0.02879   2.64336
    R2        2.58912  -0.00248   0.00000  -0.00419  -0.00414   2.58498
    R3        2.07275  -0.00999   0.00000  -0.02884  -0.02884   2.04391
    R4        2.65846  -0.01336   0.00000  -0.03028  -0.03032   2.62814
    R5        3.19811   0.02292   0.00000   0.06121   0.06121   3.25932
    R6        2.65846  -0.01336   0.00000  -0.03028  -0.03032   2.62814
    R7        2.08137  -0.01298   0.00000  -0.03801  -0.03801   2.04337
    R8        2.67216  -0.01266   0.00000  -0.02879  -0.02879   2.64336
    R9        3.19811   0.02292   0.00000   0.06121   0.06121   3.25932
   R10        2.58912  -0.00248   0.00000  -0.00419  -0.00414   2.58498
   R11        2.07277  -0.01000   0.00000  -0.02886  -0.02886   2.04391
    A1        1.99450   0.00418   0.00000   0.01907   0.01911   2.01361
    A2        2.13843  -0.00383   0.00000  -0.02002  -0.02004   2.11839
    A3        2.15026  -0.00035   0.00000   0.00095   0.00093   2.15119
    A4        2.10432   0.00174   0.00000   0.00485   0.00480   2.10911
    A5        2.08980   0.00022   0.00000   0.00183   0.00186   2.09166
    A6        2.08906  -0.00196   0.00000  -0.00668  -0.00665   2.08241
    A7        2.10252  -0.00064   0.00000  -0.00641  -0.00650   2.09603
    A8        2.09033   0.00032   0.00000   0.00320   0.00325   2.09358
    A9        2.09033   0.00032   0.00000   0.00320   0.00325   2.09358
   A10        2.10432   0.00174   0.00000   0.00485   0.00480   2.10911
   A11        2.08906  -0.00196   0.00000  -0.00668  -0.00665   2.08241
   A12        2.08980   0.00022   0.00000   0.00183   0.00186   2.09166
   A13        1.99450   0.00418   0.00000   0.01907   0.01911   2.01361
   A14        2.13843  -0.00383   0.00000  -0.02002  -0.02004   2.11839
   A15        2.15026  -0.00035   0.00000   0.00095   0.00093   2.15119
   A16        2.26621  -0.01121   0.00000  -0.04143  -0.04132   2.22489
    D1        0.00000   0.00000   0.00000  -0.00000   0.00000   0.00000
    D2        3.14159   0.00000   0.00000   0.00000   0.00000   3.14159
    D3        3.14159   0.00000   0.00000  -0.00000   0.00000   3.14159
    D4        0.00000   0.00000   0.00000   0.00000   0.00000   0.00000
    D5        0.00000  -0.00000   0.00000   0.00000   0.00000   0.00000
    D6        3.14159  -0.00000   0.00000   0.00000   0.00000   3.14159
    D7        0.00000   0.00000   0.00000  -0.00000   0.00000   0.00000
    D8        3.14159  -0.00000   0.00000   0.00000   0.00000   3.14159
    D9        3.14159  -0.00000   0.00000  -0.00000   0.00000   3.14159
   D10        0.00000  -0.00000   0.00000  -0.00000   0.00000   0.00000
   D11        0.00000   0.00000   0.00000   0.00000   0.00000   0.00000
   D12        3.14159   0.00000   0.00000   0.00000   0.00000   3.14159
   D13        3.14159  -0.00000   0.00000   0.00000   0.00000   3.14159
   D14        0.00000  -0.00000   0.00000   0.00000   0.00000   0.00000
   D15        0.00000   0.00000   0.00000  -0.00000   0.00000   0.00000
   D16        3.14159   0.00000   0.00000  -0.00000   0.00000   3.14159
   D17        3.14159   0.00000   0.00000  -0.00000   0.00000   3.14159
   D18        0.00000   0.00000   0.00000  -0.00000   0.00000   0.00000
   D19        0.00000   0.00000   0.00000   0.00000   0.00000   0.00000
   D20        3.14159  -0.00000   0.00000  -0.00000   0.00000   3.14159
         Item               Value     Threshold  Converged?
 Maximum Force            0.022922     0.000450     NO 
 RMS     Force            0.007017     0.000300     NO 
 Maximum Displacement     0.066720     0.001800     NO 
 RMS     Displacement     0.021346     0.001200     NO 
 Predicted change in Energy=-3.185690D-03
 GradGradGradGradGradGradGradGradGradGradGradGradGradGradGradGradGradGrad

                          Input orientation:                          
 ---------------------------------------------------------------------
 Center     Atomic      Atomic             Coordinates (Angstroms)
 Number     Number       Type             X           Y           Z
 ---------------------------------------------------------------------
      1          6           0       -3.215500    0.206379    0.000000
      2          6           0       -2.012527    0.920186    0.000000
      3          6           0       -0.789999    0.257150    0.000000
      4          6           0       -0.750675   -1.133046    0.000000
      5          6           0       -1.930895   -1.883875    0.000000
      6          6           0       -3.088857   -1.155656    0.000000
      7          1           0       -4.171003    0.713184    0.000000
      8         17           0       -2.037820    2.644757    0.000000
      9          1           0        0.131237    0.823312    0.000000
     10         17           0        0.776510   -1.934602    0.000000
     11          1           0       -1.910341   -2.965269    0.000000
 ---------------------------------------------------------------------
                    Distance matrix (angstroms):
                    1          2          3          4          5
     1  C    0.000000
     2  C    1.398808   0.000000
     3  C    2.426032   1.390752   0.000000
     4  C    2.805249   2.409986   1.390752   0.000000
     5  C    2.453441   2.805249   2.426032   1.398808   0.000000
     6  C    1.367910   2.338291   2.698290   2.338292   1.367910
     7  H    1.081590   2.168380   3.411620   3.886799   3.429693
     8  Cl   2.707881   1.724757   2.694017   3.991058   4.529894
     9  H    3.403124   2.145951   1.081303   2.145951   3.403124
    10  Cl   4.529895   3.991058   2.694017   1.724757   2.707881
    11  H    3.429693   3.886798   3.411619   2.168379   1.081589
                    6          7          8          9         10
     6  C    0.000000
     7  H    2.159537   0.000000
     8  Cl   3.943072   2.877750   0.000000
     9  H    3.779592   4.303649   2.832396   0.000000
    10  Cl   3.943073   5.611475   5.375034   2.832396   0.000000
    11  H    2.159537   4.317593   5.611474   4.303648   2.877750
                   11
    11  H    0.000000
 Stoichiometry    C6H3Cl2(2)
 Framework group  CS[SG(C6H3Cl2)]
 Deg. of freedom    19
 Full point group                 CS      NOp   2
 Largest Abelian subgroup         CS      NOp   2
 Largest concise Abelian subgroup C1      NOp   1
                         Standard orientation:                         
 ---------------------------------------------------------------------
 Center     Atomic      Atomic             Coordinates (Angstroms)
 Number     Number       Type             X           Y           Z
 ---------------------------------------------------------------------
      1          6           0        1.442595   -1.226721   -0.000000
      2          6           0        0.043956   -1.204993   -0.000000
      3          6           0       -0.650438    0.000000   -0.000000
      4          6           0        0.043956    1.204993    0.000000
      5          6           0        1.442595    1.226720    0.000000
      6          6           0        2.047852   -0.000000    0.000000
      7          1           0        1.991294   -2.158797   -0.000000
      8         17           0       -0.837469   -2.687517   -0.000000
      9          1           0       -1.731741    0.000000   -0.000000
     10         17           0       -0.837469    2.687517    0.000000
     11          1           0        1.991294    2.158796    0.000000
 ---------------------------------------------------------------------
 Rotational constants (GHZ):           3.0562911           0.8631572           0.6730691
 Standard basis: 6-311++G(d,p) (5D, 7F)
 There are   166 symmetry adapted cartesian basis functions of A'  symmetry.
 There are    55 symmetry adapted cartesian basis functions of A"  symmetry.
 There are   158 symmetry adapted basis functions of A'  symmetry.
 There are    55 symmetry adapted basis functions of A"  symmetry.
   213 basis functions,   349 primitive gaussians,   221 cartesian basis functions
    37 alpha electrons       36 beta electrons
       nuclear repulsion energy       441.9016139075 Hartrees.
 NAtoms=   11 NActive=   11 NUniq=   11 SFac= 1.00D+00 NAtFMM=   60 NAOKFM=F Big=F
 Integral buffers will be    131072 words long.
 Raffenetti 2 integral format.
 Two-electron integral symmetry is turned on.
 One-electron integrals computed using PRISM.
 NBasis=   213 RedAO= T EigKep=  1.61D-06  NBF=   158    55
 NBsUse=   213 1.00D-06 EigRej= -1.00D+00 NBFU=   158    55
 Initial guess from the checkpoint file:  "frequency_chks/_35ClBzNeutralRadical_Freq.chk"
 B after Tr=    -0.000000   -0.000000   -0.000000
         Rot=    1.000000    0.000000    0.000000    0.000000 Ang=   0.00 deg.
 Initial guess orbital symmetries:
 Alpha Orbitals:
       Occupied  (A') (A') (A') (A') (A') (A') (A') (A') (A') (A')
                 (A') (A') (A") (A") (A') (A') (A') (A') (A') (A')
                 (A') (A') (A') (A') (A') (A') (A') (A") (A') (A')
                 (A") (A') (A") (A') (A") (A') (A")
       Virtual   (A") (A") (A') (A') (A') (A') (A') (A") (A') (A')
                 (A') (A") (A") (A') (A') (A') (A") (A") (A') (A')
                 (A') (A") (A') (A") (A') (A') (A') (A') (A") (A")
                 (A') (A') (A') (A') (A') (A') (A') (A') (A') (A')
                 (A') (A') (A') (A') (A') (A') (A') (A') (A') (A")
                 (A") (A') (A') (A') (A') (A") (A') (A') (A") (A')
                 (A") (A") (A") (A') (A') (A') (A') (A") (A') (A')
                 (A') (A') (A") (A') (A') (A') (A') (A") (A') (A")
                 (A') (A") (A') (A') (A') (A') (A') (A') (A") (A')
                 (A") (A") (A') (A") (A') (A') (A') (A') (A") (A")
                 (A') (A') (A') (A') (A') (A") (A") (A") (A') (A')
                 (A') (A') (A") (A') (A') (A") (A") (A') (A") (A')
                 (A') (A') (A") (A') (A') (A") (A") (A") (A') (A')
                 (A') (A') (A') (A') (A') (A') (A") (A') (A') (A')
                 (A') (A') (A") (A") (A") (A") (A') (A") (A') (A')
                 (A') (A') (A') (A') (A') (A') (A') (A') (A') (A')
                 (A') (A') (A') (A') (A') (A') (A') (A') (A") (A")
                 (A') (A') (A') (A') (A') (A')
 Beta  Orbitals:
       Occupied  (A') (A') (A') (A') (A') (A') (A') (A') (A') (A')
                 (A') (A') (A") (A") (A') (A') (A') (A') (A') (A')
                 (A') (A') (A') (A') (A') (A') (A') (A") (A') (A')
                 (A") (A') (A") (A') (A") (A")
       Virtual   (A') (A") (A') (A") (A') (A') (A') (A') (A") (A')
                 (A") (A') (A") (A') (A') (A') (A') (A") (A") (A')
                 (A') (A') (A') (A") (A") (A') (A') (A') (A') (A")
                 (A') (A") (A') (A') (A') (A') (A') (A') (A') (A')
                 (A') (A') (A') (A') (A') (A') (A') (A') (A') (A')
                 (A") (A") (A') (A') (A') (A') (A") (A') (A') (A')
                 (A") (A") (A") (A') (A") (A') (A') (A") (A') (A')
                 (A') (A') (A') (A") (A') (A') (A') (A') (A") (A')
                 (A") (A') (A") (A') (A') (A') (A') (A') (A') (A")
                 (A') (A") (A") (A') (A") (A') (A') (A') (A') (A")
                 (A") (A') (A') (A') (A') (A') (A") (A") (A") (A')
                 (A') (A') (A') (A") (A') (A') (A") (A") (A') (A")
                 (A') (A') (A') (A") (A') (A') (A") (A") (A") (A')
                 (A') (A') (A') (A') (A') (A') (A') (A") (A') (A')
                 (A') (A') (A') (A") (A") (A") (A") (A') (A") (A')
                 (A') (A') (A') (A') (A') (A') (A') (A') (A') (A')
                 (A') (A') (A') (A') (A') (A') (A') (A') (A') (A")
                 (A") (A') (A') (A') (A') (A') (A')
 Initial guess <Sx>= 0.0000 <Sy>= 0.0000 <Sz>= 0.5000 <S**2>= 0.7625 S= 0.5062
 ExpMin= 3.60D-02 ExpMax= 1.06D+05 ExpMxC= 3.62D+03 IAcc=3 IRadAn=         5 AccDes= 0.00D+00
 Harris functional with IExCor= 1009 and IRadAn=       5 diagonalized for initial guess.
 HarFok:  IExCor= 1009 AccDes= 0.00D+00 IRadAn=         5 IDoV= 1 UseB2=F ITyADJ=14
 ICtDFT=  3500011 ScaDFX=  1.000000  1.000000  1.000000  1.000000
 FoFCou: FMM=F IPFlag=           0 FMFlag=      100000 FMFlg1=           0
         NFxFlg=           0 DoJE=T BraDBF=F KetDBF=T FulRan=T
         wScrn=  0.000000 ICntrl=       500 IOpCl=  0 I1Cent=   200000004 NGrid=           0
         NMat0=    1 NMatS0=      1 NMatT0=    0 NMatD0=    1 NMtDS0=    0 NMtDT0=    0
 Petite list used in FoFCou.
 Keep R1 and R2 ints in memory in symmetry-blocked form, NReq=411615841.
 Requested convergence on RMS density matrix=1.00D-08 within 128 cycles.
 Requested convergence on MAX density matrix=1.00D-06.
 Requested convergence on             energy=1.00D-06.
 No special actions if energy rises.
 SCF Done:  E(UM062X) =  -1150.71247585     A.U. after   17 cycles
            NFock= 17  Conv=0.58D-08     -V/T= 2.0024
 <Sx>= 0.0000 <Sy>= 0.0000 <Sz>= 0.5000 <S**2>= 0.7622 S= 0.5061
 <L.S>=  0.00000000000    
 Annihilation of the first spin contaminant:
 S**2 before annihilation     0.7622,   after     0.7501
 Calling FoFJK, ICntrl=      2127 FMM=F ISym2X=1 I1Cent= 0 IOpClX= 1 NMat=1 NMatS=1 NMatT=0.
 ***** Axes restored to original set *****
 -------------------------------------------------------------------
 Center     Atomic                   Forces (Hartrees/Bohr)
 Number     Number              X              Y              Z
 -------------------------------------------------------------------
      1        6           0.002188170    0.003712597    0.000000000
      2        6          -0.002117317   -0.010810953   -0.000000000
      3        6           0.003977267    0.002444299   -0.000000000
      4        6          -0.010601587    0.002994467    0.000000000
      5        6           0.004300761    0.000275092   -0.000000000
      6        6          -0.003331512   -0.002047199    0.000000000
      7        1          -0.000382195    0.000630345    0.000000000
      8       17          -0.000193120    0.006204359    0.000000000
      9        1           0.000321736    0.000197746    0.000000000
     10       17           0.005448064   -0.002974808   -0.000000000
     11        1           0.000389733   -0.000625945   -0.000000000
 -------------------------------------------------------------------
 Cartesian Forces:  Max     0.010810953 RMS     0.003460772

 GradGradGradGradGradGradGradGradGradGradGradGradGradGradGradGradGradGrad
 Berny optimization.
 Using GEDIIS/GDIIS optimizer.
 FormGI is forming the generalized inverse of G from B-inverse, IUseBI=4.
 Internal  Forces:  Max     0.006206524 RMS     0.001688579
 Search for a local minimum.
 Step number   2 out of a maximum of   57
 All quantities printed in internal units (Hartrees-Bohrs-Radians)
 Mixed Optimization -- RFO/linear search
 Update second derivatives using D2CorX and points    1    2
 DE= -3.63D-03 DEPred=-3.19D-03 R= 1.14D+00
 TightC=F SS=  1.41D+00  RLast= 1.33D-01 DXNew= 5.0454D-01 3.9777D-01
 Trust test= 1.14D+00 RLast= 1.33D-01 DXMaxT set to 3.98D-01
 ITU=  1  0
 Use linear search instead of GDIIS.
     Eigenvalues ---    0.01942   0.01948   0.01972   0.01992   0.01999
     Eigenvalues ---    0.02085   0.02133   0.02393   0.15896   0.16000
     Eigenvalues ---    0.16000   0.20785   0.23505   0.23910   0.25000
     Eigenvalues ---    0.25049   0.31495   0.33708   0.34032   0.35642
     Eigenvalues ---    0.36825   0.40422   0.42503   0.43157   0.44328
     Eigenvalues ---    0.50515   0.51407
 RFO step:  Lambda=-3.49698951D-04 EMin= 1.94207180D-02
 Quartic linear search produced a step of  0.19255.
 Iteration  1 RMS(Cart)=  0.00618073 RMS(Int)=  0.00002928
 Iteration  2 RMS(Cart)=  0.00004195 RMS(Int)=  0.00000441
 Iteration  3 RMS(Cart)=  0.00000000 RMS(Int)=  0.00000441
 ClnCor:  largest displacement from symmetrization is 1.69D-09 for atom     9.
 Variable       Old X    -DE/DX   Delta X   Delta X   Delta X     New X
                                 (Linear)    (Quad)   (Total)
    R1        2.64336  -0.00184  -0.00554  -0.00107  -0.00661   2.63675
    R2        2.58498   0.00234  -0.00080   0.00617   0.00538   2.59035
    R3        2.04391   0.00063  -0.00555   0.00622   0.00067   2.04458
    R4        2.62814  -0.00013  -0.00584   0.00371  -0.00213   2.62601
    R5        3.25932   0.00621   0.01179   0.01158   0.02337   3.28269
    R6        2.62814  -0.00013  -0.00584   0.00371  -0.00213   2.62601
    R7        2.04337   0.00038  -0.00732   0.00663  -0.00069   2.04267
    R8        2.64336  -0.00184  -0.00554  -0.00107  -0.00661   2.63675
    R9        3.25932   0.00621   0.01179   0.01158   0.02337   3.28269
   R10        2.58498   0.00234  -0.00080   0.00617   0.00538   2.59035
   R11        2.04391   0.00063  -0.00556   0.00623   0.00067   2.04458
    A1        2.01361   0.00029   0.00368  -0.00059   0.00310   2.01671
    A2        2.11839  -0.00053  -0.00386  -0.00110  -0.00496   2.11343
    A3        2.15119   0.00024   0.00018   0.00168   0.00186   2.15305
    A4        2.10911   0.00245   0.00092   0.01095   0.01186   2.12098
    A5        2.09166  -0.00139   0.00036  -0.00686  -0.00650   2.08516
    A6        2.08241  -0.00106  -0.00128  -0.00409  -0.00536   2.07705
    A7        2.09603  -0.00289  -0.00125  -0.01508  -0.01635   2.07968
    A8        2.09358   0.00145   0.00063   0.00754   0.00817   2.10175
    A9        2.09358   0.00145   0.00063   0.00754   0.00817   2.10175
   A10        2.10911   0.00245   0.00092   0.01095   0.01186   2.12098
   A11        2.08241  -0.00106  -0.00128  -0.00409  -0.00536   2.07705
   A12        2.09166  -0.00139   0.00036  -0.00686  -0.00650   2.08516
   A13        2.01361   0.00029   0.00368  -0.00059   0.00310   2.01671
   A14        2.11839  -0.00053  -0.00386  -0.00110  -0.00496   2.11343
   A15        2.15119   0.00024   0.00018   0.00168   0.00186   2.15304
   A16        2.22489  -0.00260  -0.00796  -0.00564  -0.01358   2.21132
    D1        0.00000  -0.00000   0.00000  -0.00000  -0.00000   0.00000
    D2        3.14159  -0.00000   0.00000  -0.00000   0.00000   3.14159
    D3        3.14159  -0.00000   0.00000  -0.00000   0.00000   3.14159
    D4       -0.00000  -0.00000   0.00000  -0.00000   0.00000   0.00000
    D5        0.00000   0.00000   0.00000   0.00000   0.00000   0.00000
    D6        3.14159   0.00000   0.00000   0.00000   0.00000   3.14159
    D7       -0.00000   0.00000   0.00000   0.00000   0.00000   0.00000
    D8        3.14159   0.00000   0.00000   0.00000   0.00000   3.14159
    D9        3.14159   0.00000   0.00000  -0.00000   0.00000   3.14159
   D10       -0.00000   0.00000   0.00000  -0.00000   0.00000   0.00000
   D11       -0.00000  -0.00000   0.00000   0.00000   0.00000   0.00000
   D12        3.14159  -0.00000   0.00000   0.00000   0.00000   3.14159
   D13        3.14159   0.00000   0.00000   0.00000   0.00000   3.14159
   D14       -0.00000  -0.00000   0.00000   0.00000   0.00000   0.00000
   D15        0.00000  -0.00000   0.00000  -0.00000   0.00000   0.00000
   D16        3.14159  -0.00000   0.00000  -0.00000   0.00000   3.14159
   D17        3.14159  -0.00000   0.00000  -0.00000   0.00000   3.14159
   D18       -0.00000  -0.00000   0.00000  -0.00000   0.00000   0.00000
   D19       -0.00000   0.00000   0.00000   0.00000   0.00000   0.00000
   D20        3.14159   0.00000   0.00000  -0.00000   0.00000   3.14159
         Item               Value     Threshold  Converged?
 Maximum Force            0.006207     0.000450     NO 
 RMS     Force            0.001689     0.000300     NO 
 Maximum Displacement     0.016476     0.001800     NO 
 RMS     Displacement     0.006184     0.001200     NO 
 Predicted change in Energy=-2.704669D-04
 GradGradGradGradGradGradGradGradGradGradGradGradGradGradGradGradGradGrad

                          Input orientation:                          
 ---------------------------------------------------------------------
 Center     Atomic      Atomic             Coordinates (Angstroms)
 Number     Number       Type             X           Y           Z
 ---------------------------------------------------------------------
      1          6           0       -3.215213    0.204685    0.000000
      2          6           0       -2.012630    0.912272    0.000000
      3          6           0       -0.785719    0.259780    0.000000
      4          6           0       -0.757781   -1.129563   -0.000000
      5          6           0       -1.932277   -1.882854   -0.000000
      6          6           0       -3.097575   -1.161014    0.000000
      7          1           0       -4.166610    0.719902    0.000000
      8         17           0       -2.042985    2.649130    0.000000
      9          1           0        0.135204    0.825751    0.000000
     10         17           0        0.778078   -1.941184   -0.000000
     11          1           0       -1.902362   -2.964384   -0.000000
 ---------------------------------------------------------------------
                    Distance matrix (angstroms):
                    1          2          3          4          5
     1  C    0.000000
     2  C    1.395309   0.000000
     3  C    2.430119   1.389624   0.000000
     4  C    2.796281   2.396609   1.389624   0.000000
     5  C    2.450253   2.796281   2.430119   1.395309   0.000000
     6  C    1.370756   2.340005   2.713547   2.340005   1.370756
     7  H    1.081945   2.162553   3.412057   3.878225   3.430245
     8  Cl   2.710983   1.737122   2.699946   3.991274   4.533336
     9  H    3.407495   2.149576   1.080936   2.149576   3.407495
    10  Cl   4.533336   3.991274   2.699946   1.737122   2.710983
    11  H    3.430244   3.878225   3.412057   2.162553   1.081944
                    6          7          8          9         10
     6  C    0.000000
     7  H    2.163488   0.000000
     8  Cl   3.953398   2.869094   0.000000
     9  H    3.794483   4.303116   2.840637   0.000000
    10  Cl   3.953398   5.615276   5.387892   2.840637   0.000000
    11  H    2.163488   4.324440   5.615275   4.303116   2.869094
                   11
    11  H    0.000000
 Stoichiometry    C6H3Cl2(2)
 Framework group  CS[SG(C6H3Cl2)]
 Deg. of freedom    19
 Full point group                 CS      NOp   2
 Largest Abelian subgroup         CS      NOp   2
 Largest concise Abelian subgroup C1      NOp   1
                         Standard orientation:                         
 ---------------------------------------------------------------------
 Center     Atomic      Atomic             Coordinates (Angstroms)
 Number     Number       Type             X           Y           Z
 ---------------------------------------------------------------------
      1          6           0        1.441289   -1.225127    0.000000
      2          6           0        0.046237   -1.198305    0.000000
      3          6           0       -0.657412    0.000000    0.000000
      4          6           0        0.046237    1.198305   -0.000000
      5          6           0        1.441289    1.225127   -0.000000
      6          6           0        2.056135    0.000000   -0.000000
      7          1           0        1.982084   -2.162220    0.000000
      8         17           0       -0.837308   -2.693946    0.000000
      9          1           0       -1.738348   -0.000000    0.000000
     10         17           0       -0.837308    2.693946   -0.000000
     11          1           0        1.982084    2.162220   -0.000000
 ---------------------------------------------------------------------
 Rotational constants (GHZ):           3.0495828           0.8602628           0.6709837
 Standard basis: 6-311++G(d,p) (5D, 7F)
 There are   166 symmetry adapted cartesian basis functions of A'  symmetry.
 There are    55 symmetry adapted cartesian basis functions of A"  symmetry.
 There are   158 symmetry adapted basis functions of A'  symmetry.
 There are    55 symmetry adapted basis functions of A"  symmetry.
   213 basis functions,   349 primitive gaussians,   221 cartesian basis functions
    37 alpha electrons       36 beta electrons
       nuclear repulsion energy       441.2080204735 Hartrees.
 NAtoms=   11 NActive=   11 NUniq=   11 SFac= 1.00D+00 NAtFMM=   60 NAOKFM=F Big=F
 Integral buffers will be    131072 words long.
 Raffenetti 2 integral format.
 Two-electron integral symmetry is turned on.
 One-electron integrals computed using PRISM.
 NBasis=   213 RedAO= T EigKep=  1.62D-06  NBF=   158    55
 NBsUse=   213 1.00D-06 EigRej= -1.00D+00 NBFU=   158    55
 Initial guess from the checkpoint file:  "frequency_chks/_35ClBzNeutralRadical_Freq.chk"
 B after Tr=     0.000000   -0.000000   -0.000000
         Rot=    1.000000   -0.000000   -0.000000   -0.000000 Ang=  -0.00 deg.
 Initial guess orbital symmetries:
 Alpha Orbitals:
       Occupied  (A') (A') (A') (A') (A') (A') (A') (A') (A') (A')
                 (A') (A') (A") (A") (A') (A') (A') (A') (A') (A')
                 (A') (A') (A') (A') (A') (A') (A') (A") (A') (A')
                 (A") (A') (A") (A') (A") (A') (A")
       Virtual   (A") (A") (A') (A') (A') (A') (A') (A") (A') (A')
                 (A') (A") (A") (A') (A') (A') (A") (A") (A') (A')
                 (A') (A") (A') (A') (A") (A') (A') (A') (A") (A")
                 (A') (A') (A') (A') (A') (A') (A') (A') (A') (A')
                 (A') (A') (A') (A') (A') (A') (A') (A') (A') (A")
                 (A") (A') (A') (A') (A') (A") (A') (A') (A") (A')
                 (A") (A") (A") (A') (A') (A') (A') (A") (A') (A')
                 (A') (A') (A") (A') (A') (A') (A') (A") (A') (A")
                 (A') (A") (A') (A') (A') (A') (A') (A') (A") (A')
                 (A") (A") (A') (A") (A') (A') (A') (A') (A") (A")
                 (A') (A') (A') (A') (A') (A") (A") (A") (A') (A')
                 (A') (A') (A') (A") (A') (A") (A") (A') (A") (A')
                 (A') (A') (A") (A') (A') (A") (A") (A") (A') (A')
                 (A') (A') (A') (A') (A') (A') (A") (A') (A') (A')
                 (A') (A') (A") (A") (A") (A") (A') (A") (A') (A')
                 (A') (A') (A') (A') (A') (A') (A') (A') (A') (A')
                 (A') (A') (A') (A') (A') (A') (A') (A') (A") (A")
                 (A') (A') (A') (A') (A') (A')
 Beta  Orbitals:
       Occupied  (A') (A') (A') (A') (A') (A') (A') (A') (A') (A')
                 (A') (A') (A") (A") (A') (A') (A') (A') (A') (A')
                 (A') (A') (A') (A') (A') (A') (A') (A") (A') (A')
                 (A") (A') (A") (A') (A") (A")
       Virtual   (A') (A") (A') (A") (A') (A') (A') (A') (A") (A')
                 (A') (A") (A") (A') (A') (A') (A') (A") (A") (A')
                 (A') (A') (A") (A') (A") (A') (A') (A') (A') (A")
                 (A') (A") (A') (A') (A') (A') (A') (A') (A') (A')
                 (A') (A') (A') (A') (A') (A') (A') (A') (A') (A')
                 (A") (A") (A') (A') (A') (A') (A") (A') (A') (A')
                 (A") (A") (A") (A") (A') (A') (A') (A") (A') (A')
                 (A') (A') (A') (A") (A') (A') (A') (A') (A") (A')
                 (A") (A') (A") (A') (A') (A') (A') (A') (A') (A")
                 (A') (A") (A") (A') (A") (A') (A') (A') (A') (A")
                 (A") (A') (A') (A') (A') (A') (A") (A") (A") (A')
                 (A') (A') (A') (A") (A') (A') (A") (A') (A") (A")
                 (A') (A') (A') (A") (A') (A') (A") (A") (A") (A')
                 (A') (A') (A') (A') (A') (A') (A') (A") (A') (A')
                 (A') (A') (A') (A") (A") (A") (A") (A') (A") (A')
                 (A') (A') (A') (A') (A') (A') (A') (A') (A') (A')
                 (A') (A') (A') (A') (A') (A') (A') (A') (A') (A")
                 (A") (A') (A') (A') (A') (A') (A')
 Initial guess <Sx>= 0.0000 <Sy>= 0.0000 <Sz>= 0.5000 <S**2>= 0.7623 S= 0.5061
 Keep R1 and R2 ints in memory in symmetry-blocked form, NReq=411615841.
 Requested convergence on RMS density matrix=1.00D-08 within 128 cycles.
 Requested convergence on MAX density matrix=1.00D-06.
 Requested convergence on             energy=1.00D-06.
 No special actions if energy rises.
 SCF Done:  E(UM062X) =  -1150.71279661     A.U. after   15 cycles
            NFock= 15  Conv=0.33D-08     -V/T= 2.0024
 <Sx>= 0.0000 <Sy>= 0.0000 <Sz>= 0.5000 <S**2>= 0.7623 S= 0.5062
 <L.S>=  0.00000000000    
 Annihilation of the first spin contaminant:
 S**2 before annihilation     0.7623,   after     0.7501
 Calling FoFJK, ICntrl=      2127 FMM=F ISym2X=1 I1Cent= 0 IOpClX= 1 NMat=1 NMatS=1 NMatT=0.
 ***** Axes restored to original set *****
 -------------------------------------------------------------------
 Center     Atomic                   Forces (Hartrees/Bohr)
 Number     Number              X              Y              Z
 -------------------------------------------------------------------
      1        6          -0.000269924    0.000891987   -0.000000000
      2        6          -0.000493041   -0.002297661    0.000000000
      3        6           0.001520323    0.000934311    0.000000000
      4        6          -0.002272662    0.000598029   -0.000000000
      5        6           0.000673911   -0.000643377    0.000000000
      6        6           0.000017712    0.000010928   -0.000000000
      7        1          -0.000295338    0.000157339   -0.000000000
      8       17          -0.000116360    0.001157053   -0.000000000
      9        1           0.000248643    0.000152801    0.000000000
     10       17           0.000979751   -0.000626467    0.000000000
     11        1           0.000006986   -0.000334943    0.000000000
 -------------------------------------------------------------------
 Cartesian Forces:  Max     0.002297661 RMS     0.000758395

 GradGradGradGradGradGradGradGradGradGradGradGradGradGradGradGradGradGrad
 Berny optimization.
 Using GEDIIS/GDIIS optimizer.
 FormGI is forming the generalized inverse of G from B-inverse, IUseBI=4.
 Internal  Forces:  Max     0.001158936 RMS     0.000395839
 Search for a local minimum.
 Step number   3 out of a maximum of   57
 All quantities printed in internal units (Hartrees-Bohrs-Radians)
 Mixed Optimization -- En-DIIS/RFO-DIIS
 Update second derivatives using D2CorX and points    1    2    3
 DE= -3.21D-04 DEPred=-2.70D-04 R= 1.19D+00
 TightC=F SS=  1.41D+00  RLast= 4.83D-02 DXNew= 6.6897D-01 1.4487D-01
 Trust test= 1.19D+00 RLast= 4.83D-02 DXMaxT set to 3.98D-01
 ITU=  1  1  0
 Use linear search instead of GDIIS.
     Eigenvalues ---    0.01942   0.01948   0.01971   0.01991   0.01999
     Eigenvalues ---    0.02086   0.02135   0.02391   0.15735   0.16000
     Eigenvalues ---    0.16000   0.17600   0.23511   0.23929   0.25000
     Eigenvalues ---    0.25037   0.30918   0.33704   0.34032   0.35755
     Eigenvalues ---    0.36825   0.40388   0.42868   0.43730   0.44323
     Eigenvalues ---    0.50502   0.51364
 RFO step:  Lambda=-1.10032440D-05 EMin= 1.94218254D-02
 Quartic linear search produced a step of  0.23849.
 Iteration  1 RMS(Cart)=  0.00181378 RMS(Int)=  0.00000259
 Iteration  2 RMS(Cart)=  0.00000336 RMS(Int)=  0.00000115
 Iteration  3 RMS(Cart)=  0.00000000 RMS(Int)=  0.00000115
 ClnCor:  largest displacement from symmetrization is 2.17D-10 for atom     9.
 Variable       Old X    -DE/DX   Delta X   Delta X   Delta X     New X
                                 (Linear)    (Quad)   (Total)
    R1        2.63675  -0.00007  -0.00158   0.00061  -0.00096   2.63579
    R2        2.59035   0.00047   0.00128  -0.00006   0.00122   2.59158
    R3        2.04458   0.00033   0.00016   0.00054   0.00070   2.04528
    R4        2.62601   0.00053  -0.00051   0.00136   0.00085   2.62686
    R5        3.28269   0.00116   0.00557   0.00028   0.00586   3.28854
    R6        2.62601   0.00053  -0.00051   0.00136   0.00085   2.62686
    R7        2.04267   0.00029  -0.00017   0.00050   0.00034   2.04301
    R8        2.63675  -0.00007  -0.00158   0.00061  -0.00096   2.63579
    R9        3.28269   0.00116   0.00557   0.00028   0.00586   3.28854
   R10        2.59035   0.00047   0.00128  -0.00006   0.00122   2.59158
   R11        2.04458   0.00034   0.00016   0.00054   0.00070   2.04528
    A1        2.01671  -0.00033   0.00074  -0.00197  -0.00123   2.01548
    A2        2.11343   0.00017  -0.00118   0.00148   0.00029   2.11373
    A3        2.15305   0.00016   0.00044   0.00049   0.00093   2.15398
    A4        2.12098   0.00073   0.00283   0.00149   0.00432   2.12530
    A5        2.08516  -0.00052  -0.00155  -0.00132  -0.00287   2.08229
    A6        2.07705  -0.00021  -0.00128  -0.00016  -0.00144   2.07560
    A7        2.07968  -0.00094  -0.00390  -0.00179  -0.00569   2.07399
    A8        2.10175   0.00047   0.00195   0.00090   0.00284   2.10460
    A9        2.10175   0.00047   0.00195   0.00090   0.00284   2.10460
   A10        2.12098   0.00073   0.00283   0.00149   0.00432   2.12530
   A11        2.07705  -0.00021  -0.00128  -0.00016  -0.00144   2.07560
   A12        2.08516  -0.00052  -0.00155  -0.00132  -0.00287   2.08229
   A13        2.01671  -0.00033   0.00074  -0.00197  -0.00123   2.01548
   A14        2.11343   0.00017  -0.00118   0.00148   0.00029   2.11373
   A15        2.15304   0.00016   0.00044   0.00049   0.00093   2.15398
   A16        2.21132   0.00015  -0.00324   0.00275  -0.00049   2.21083
    D1       -0.00000   0.00000   0.00000   0.00000   0.00000   0.00000
    D2        3.14159  -0.00000   0.00000   0.00000   0.00000   3.14159
    D3        3.14159   0.00000   0.00000   0.00000   0.00000   3.14159
    D4        0.00000   0.00000   0.00000   0.00000   0.00000   0.00000
    D5       -0.00000  -0.00000   0.00000  -0.00000   0.00000   0.00000
    D6        3.14159  -0.00000   0.00000  -0.00000   0.00000   3.14159
    D7       -0.00000  -0.00000   0.00000  -0.00000   0.00000   0.00000
    D8        3.14159  -0.00000   0.00000  -0.00000   0.00000   3.14159
    D9        3.14159   0.00000   0.00000   0.00000   0.00000   3.14159
   D10       -0.00000   0.00000   0.00000   0.00000   0.00000   0.00000
   D11        0.00000  -0.00000   0.00000  -0.00000   0.00000   0.00000
   D12        3.14159   0.00000   0.00000   0.00000   0.00000   3.14159
   D13        3.14159   0.00000   0.00000  -0.00000   0.00000   3.14159
   D14       -0.00000   0.00000   0.00000   0.00000   0.00000   0.00000
   D15       -0.00000   0.00000   0.00000   0.00000   0.00000   0.00000
   D16        3.14159   0.00000   0.00000   0.00000   0.00000   3.14159
   D17        3.14159  -0.00000   0.00000   0.00000   0.00000   3.14159
   D18        0.00000   0.00000   0.00000   0.00000   0.00000   0.00000
   D19        0.00000  -0.00000   0.00000  -0.00000   0.00000   0.00000
   D20        3.14159  -0.00000   0.00000  -0.00000   0.00000   3.14159
         Item               Value     Threshold  Converged?
 Maximum Force            0.001159     0.000450     NO 
 RMS     Force            0.000396     0.000300     NO 
 Maximum Displacement     0.005134     0.001800     NO 
 RMS     Displacement     0.001813     0.001200     NO 
 Predicted change in Energy=-1.731177D-05
 GradGradGradGradGradGradGradGradGradGradGradGradGradGradGradGradGradGrad

                          Input orientation:                          
 ---------------------------------------------------------------------
 Center     Atomic      Atomic             Coordinates (Angstroms)
 Number     Number       Type             X           Y           Z
 ---------------------------------------------------------------------
      1          6           0       -3.215775    0.204842   -0.000000
      2          6           0       -2.012588    0.910399   -0.000000
      3          6           0       -0.783429    0.261187    0.000000
      4          6           0       -0.759435   -1.128680    0.000000
      5          6           0       -1.932391   -1.883426    0.000000
      6          6           0       -3.098416   -1.161531    0.000000
      7          1           0       -4.166887    0.721356   -0.000000
      8         17           0       -2.045432    2.650311   -0.000000
      9          1           0        0.137647    0.827252    0.000000
     10         17           0        0.778027   -1.943901    0.000000
     11          1           0       -1.901190   -2.965289    0.000000
 ---------------------------------------------------------------------
                    Distance matrix (angstroms):
                    1          2          3          4          5
     1  C    0.000000
     2  C    1.394800   0.000000
     3  C    2.432998   1.390074   0.000000
     4  C    2.794975   2.393373   1.390074   0.000000
     5  C    2.451109   2.794975   2.432998   1.394800   0.000000
     6  C    1.371403   2.339212   2.717221   2.339212   1.371403
[...]
      6        6           0.000253563    0.000155822    0.000000000
      7        1          -0.000026409   -0.000014888   -0.000000000
      8       17          -0.000007058    0.000043105   -0.000000000
      9        1           0.000028385    0.000017443    0.000000000
     10       17           0.000035283   -0.000025774    0.000000000
     11        1          -0.000025210   -0.000016874    0.000000000
 -------------------------------------------------------------------
 Cartesian Forces:  Max     0.000264886 RMS     0.000100616
 FormGI is forming the generalized inverse of G from B-inverse, IUseBI=4.

 GradGradGradGradGradGradGradGradGradGradGradGradGradGradGradGradGradGrad
 Berny optimization.
 Internal  Forces:  Max     0.000201706 RMS     0.000056984
 Search for a local minimum.
 Step number   1 out of a maximum of    2
 All quantities printed in internal units (Hartrees-Bohrs-Radians)
 Second derivative matrix not updated -- analytic derivatives used.
 ITU=  0
     Eigenvalues ---    0.01683   0.01740   0.01956   0.02304   0.02699
     Eigenvalues ---    0.02714   0.03189   0.03492   0.10346   0.10834
     Eigenvalues ---    0.11356   0.15862   0.16257   0.18051   0.18138
     Eigenvalues ---    0.20222   0.26483   0.27042   0.28380   0.36676
     Eigenvalues ---    0.36786   0.37222   0.43032   0.43064   0.47468
     Eigenvalues ---    0.49299   0.52735
 Angle between quadratic step and forces=  13.82 degrees.
 Linear search not attempted -- first point.
 Iteration  1 RMS(Cart)=  0.00028257 RMS(Int)=  0.00000009
 Iteration  2 RMS(Cart)=  0.00000013 RMS(Int)=  0.00000003
 ClnCor:  largest displacement from symmetrization is 5.86D-11 for atom     9.
 Variable       Old X    -DE/DX   Delta X   Delta X   Delta X     New X
                                 (Linear)    (Quad)   (Total)
    R1        2.63579   0.00009   0.00000   0.00021   0.00021   2.63600
    R2        2.59158  -0.00003   0.00000  -0.00011  -0.00011   2.59147
    R3        2.04528   0.00002   0.00000  -0.00000  -0.00000   2.04527
    R4        2.62686   0.00003   0.00000   0.00003   0.00003   2.62689
    R5        3.28854   0.00004   0.00000   0.00033   0.00033   3.28888
    R6        2.62686   0.00003   0.00000   0.00003   0.00003   2.62689
    R7        2.04301   0.00003   0.00000   0.00006   0.00006   2.04307
    R8        2.63579   0.00009   0.00000   0.00021   0.00021   2.63600
    R9        3.28854   0.00004   0.00000   0.00033   0.00033   3.28888
   R10        2.59158  -0.00003   0.00000  -0.00011  -0.00011   2.59147
   R11        2.04528   0.00002   0.00000  -0.00000  -0.00000   2.04527
    A1        2.01548  -0.00014   0.00000  -0.00082  -0.00082   2.01466
    A2        2.11373   0.00010   0.00000   0.00062   0.00062   2.11434
    A3        2.15398   0.00004   0.00000   0.00020   0.00020   2.15418
    A4        2.12530   0.00008   0.00000   0.00045   0.00045   2.12574
    A5        2.08229  -0.00005   0.00000  -0.00026  -0.00026   2.08203
    A6        2.07560  -0.00003   0.00000  -0.00019  -0.00019   2.07541
    A7        2.07399  -0.00007   0.00000  -0.00034  -0.00034   2.07365
    A8        2.10460   0.00003   0.00000   0.00017   0.00017   2.10477
    A9        2.10460   0.00003   0.00000   0.00017   0.00017   2.10477
   A10        2.12530   0.00008   0.00000   0.00045   0.00045   2.12574
   A11        2.07560  -0.00003   0.00000  -0.00019  -0.00019   2.07541
   A12        2.08229  -0.00005   0.00000  -0.00026  -0.00026   2.08203
   A13        2.01548  -0.00014   0.00000  -0.00082  -0.00082   2.01466
   A14        2.11373   0.00010   0.00000   0.00062   0.00062   2.11434
   A15        2.15398   0.00004   0.00000   0.00020   0.00020   2.15418
   A16        2.21083   0.00020   0.00000   0.00108   0.00108   2.21191
    D1        0.00000  -0.00000   0.00000  -0.00000   0.00000   0.00000
    D2        3.14159   0.00000   0.00000  -0.00000   0.00000   3.14159
    D3        3.14159  -0.00000   0.00000  -0.00000   0.00000   3.14159
    D4       -0.00000   0.00000   0.00000  -0.00000   0.00000   0.00000
    D5       -0.00000   0.00000   0.00000   0.00000   0.00000   0.00000
    D6        3.14159   0.00000   0.00000   0.00000   0.00000   3.14159
    D7       -0.00000  -0.00000   0.00000   0.00000   0.00000   0.00000
    D8        3.14159  -0.00000   0.00000   0.00000   0.00000   3.14159
    D9        3.14159   0.00000   0.00000   0.00000   0.00000   3.14159
   D10        0.00000  -0.00000   0.00000   0.00000   0.00000   0.00000
   D11        0.00000  -0.00000   0.00000   0.00000   0.00000   0.00000
   D12        3.14159  -0.00000   0.00000   0.00000   0.00000   3.14159
   D13        3.14159   0.00000   0.00000   0.00000   0.00000   3.14159
   D14       -0.00000  -0.00000   0.00000   0.00000   0.00000   0.00000
   D15       -0.00000   0.00000   0.00000  -0.00000   0.00000   0.00000
   D16        3.14159  -0.00000   0.00000  -0.00000   0.00000   3.14159
   D17        3.14159   0.00000   0.00000  -0.00000   0.00000   3.14159
   D18        0.00000  -0.00000   0.00000  -0.00000  -0.00000   0.00000
   D19        0.00000   0.00000   0.00000   0.00000   0.00000   0.00000
   D20        3.14159   0.00000   0.00000  -0.00000   0.00000   3.14159
         Item               Value     Threshold  Converged?
 Maximum Force            0.000202     0.000450     YES
 RMS     Force            0.000057     0.000300     YES
 Maximum Displacement     0.000911     0.001800     YES
 RMS     Displacement     0.000283     0.001200     YES
 Predicted change in Energy=-4.020773D-07
 Optimization completed.
    -- Stationary point found.
                           ----------------------------
                           !   Optimized Parameters   !
                           ! (Angstroms and Degrees)  !
 --------------------------                            --------------------------
 ! Name  Definition              Value          Derivative Info.                !
 --------------------------------------------------------------------------------
 ! R1    R(1,2)                  1.3948         -DE/DX =    0.0001              !
 ! R2    R(1,6)                  1.3714         -DE/DX =    0.0                 !
 ! R3    R(1,7)                  1.0823         -DE/DX =    0.0                 !
 ! R4    R(2,3)                  1.3901         -DE/DX =    0.0                 !
 ! R5    R(2,8)                  1.7402         -DE/DX =    0.0                 !
 ! R6    R(3,4)                  1.3901         -DE/DX =    0.0                 !
 ! R7    R(3,9)                  1.0811         -DE/DX =    0.0                 !
 ! R8    R(4,5)                  1.3948         -DE/DX =    0.0001              !
 ! R9    R(4,10)                 1.7402         -DE/DX =    0.0                 !
 ! R10   R(5,6)                  1.3714         -DE/DX =    0.0                 !
 ! R11   R(5,11)                 1.0823         -DE/DX =    0.0                 !
 ! A1    A(2,1,6)              115.4785         -DE/DX =   -0.0001              !
 ! A2    A(2,1,7)              121.1075         -DE/DX =    0.0001              !
 ! A3    A(6,1,7)              123.4139         -DE/DX =    0.0                 !
 ! A4    A(1,2,3)              121.7704         -DE/DX =    0.0001              !
 ! A5    A(1,2,8)              119.3063         -DE/DX =    0.0                 !
 ! A6    A(3,2,8)              118.9233         -DE/DX =    0.0                 !
 ! A7    A(2,3,4)              118.831          -DE/DX =   -0.0001              !
 ! A8    A(2,3,9)              120.5845         -DE/DX =    0.0                 !
 ! A9    A(4,3,9)              120.5845         -DE/DX =    0.0                 !
 ! A10   A(3,4,5)              121.7704         -DE/DX =    0.0001              !
 ! A11   A(3,4,10)             118.9233         -DE/DX =    0.0                 !
 ! A12   A(5,4,10)             119.3063         -DE/DX =    0.0                 !
 ! A13   A(4,5,6)              115.4785         -DE/DX =   -0.0001              !
 ! A14   A(4,5,11)             121.1076         -DE/DX =    0.0001              !
 ! A15   A(6,5,11)             123.4139         -DE/DX =    0.0                 !
 ! A16   A(1,6,5)              126.6711         -DE/DX =    0.0002              !
 ! D1    D(6,1,2,3)              0.0            -DE/DX =    0.0                 !
 ! D2    D(6,1,2,8)            180.0            -DE/DX =    0.0                 !
 ! D3    D(7,1,2,3)            180.0            -DE/DX =    0.0                 !
 ! D4    D(7,1,2,8)              0.0            -DE/DX =    0.0                 !
 ! D5    D(2,1,6,5)              0.0            -DE/DX =    0.0                 !
 ! D6    D(7,1,6,5)            180.0            -DE/DX =    0.0                 !
 ! D7    D(1,2,3,4)              0.0            -DE/DX =    0.0                 !
 ! D8    D(1,2,3,9)            180.0            -DE/DX =    0.0                 !
 ! D9    D(8,2,3,4)            180.0            -DE/DX =    0.0                 !
 ! D10   D(8,2,3,9)              0.0            -DE/DX =    0.0                 !
 ! D11   D(2,3,4,5)              0.0            -DE/DX =    0.0                 !
 ! D12   D(2,3,4,10)           180.0            -DE/DX =    0.0                 !
 ! D13   D(9,3,4,5)            180.0            -DE/DX =    0.0                 !
 ! D14   D(9,3,4,10)             0.0            -DE/DX =    0.0                 !
 ! D15   D(3,4,5,6)              0.0            -DE/DX =    0.0                 !
 ! D16   D(3,4,5,11)           180.0            -DE/DX =    0.0                 !
 ! D17   D(10,4,5,6)           180.0            -DE/DX =    0.0                 !
 ! D18   D(10,4,5,11)            0.0            -DE/DX =    0.0                 !
 ! D19   D(4,5,6,1)              0.0            -DE/DX =    0.0                 !
 ! D20   D(11,5,6,1)           180.0            -DE/DX =    0.0                 !
 --------------------------------------------------------------------------------
 GradGradGradGradGradGradGradGradGradGradGradGradGradGradGradGradGradGrad


 ----------------------------------------------------------------------

 Electric dipole moment (input orientation):
 (Debye = 10**-18 statcoulomb cm , SI units = C m)
                  (au)            (Debye)         (10**-30 SI)
   Tot        0.330180D+00      0.839235D+00      0.279939D+01
   x         -0.281303D+00     -0.715002D+00     -0.238499D+01
   y         -0.172880D+00     -0.439418D+00     -0.146574D+01
   z          0.000000D+00      0.000000D+00      0.000000D+00

 Dipole polarizability, Alpha (input orientation).
 (esu units = cm**3 , SI units = C**2 m**2 J**-1)
 Alpha(0;0):
               (au)            (10**-24 esu)      (10**-40 SI)
   iso        0.889639D+02      0.131831D+02      0.146682D+02
   aniso      0.636378D+02      0.943015D+01      0.104925D+02
   xx         0.101486D+03      0.150387D+02      0.167328D+02
   yx        -0.134659D+02     -0.199545D+01     -0.222023D+01
   yy         0.115122D+03      0.170593D+02      0.189810D+02
   zx         0.000000D+00      0.000000D+00      0.000000D+00
   zy         0.000000D+00      0.000000D+00      0.000000D+00
   zz         0.502839D+02      0.745130D+01      0.829069D+01

 ----------------------------------------------------------------------

 Dipole orientation:
     6         -1.83866696          2.99180043          4.97467526
     6         -1.81010379          2.94532366          2.33944944
     6         -0.62604498          1.01867369          1.00288000
     6          0.55801371         -0.90797610          2.33944978
     6          0.58657667         -0.95445253          4.97467562
     6         -0.62604520          1.01867404          6.13768345
     1         -2.76681859          4.50204917          5.99488954
    17         -3.29382684          5.35957451          0.67077459
     1         -0.62604491          1.01867357         -1.04013155
    17          2.04173687         -3.32222713          0.67077544
     1          1.51472817         -2.46470106          5.99489014

 Electric dipole moment (dipole orientation):
 (Debye = 10**-18 statcoulomb cm , SI units = C m)
                  (au)            (Debye)         (10**-30 SI)
   Tot        0.330180D+00      0.839235D+00      0.279939D+01
   x          0.000000D+00      0.000000D+00      0.000000D+00
   y          0.000000D+00      0.000000D+00      0.000000D+00
   z          0.330180D+00      0.839235D+00      0.279939D+01

 Dipole polarizability, Alpha (dipole orientation).
 (esu units = cm**3 , SI units = C**2 m**2 J**-1)
 Alpha(0;0):
               (au)            (10**-24 esu)      (10**-40 SI)
   iso        0.889639D+02      0.131831D+02      0.146682D+02
   aniso      0.636378D+02      0.943015D+01      0.104925D+02
   xx         0.703279D+02      0.104215D+02      0.115955D+02
   yx        -0.326148D+02     -0.483302D+01     -0.537746D+01
   yy         0.103353D+03      0.153154D+02      0.170407D+02
   zx         0.000000D+00      0.000000D+00      0.000000D+00
   zy         0.000000D+00      0.000000D+00      0.000000D+00
   zz         0.932105D+02      0.138124D+02      0.153683D+02

 ----------------------------------------------------------------------
 1\1\GINC-SH03-08N47\Freq\UM062X\6-311++G(d,p)\C6H3Cl2(2)\JLAPIER\09-De
 c-2025\0\\#N Geom=AllCheck Guess=TCheck SCRF=Check GenChk UM062X/6-311
 ++G(d,p) Freq\\Neutral Radical (removed 1) _35\\0,2\C,-3.215774587,0.2
 048416107,0.\C,-2.0125883943,0.9103985717,0.\C,-0.7834294443,0.2611873
 647,0.\C,-0.7594347383,-1.1286799444,0.\C,-1.9323910941,-1.8834256246,
 0.\C,-3.098416052,-1.1615307326,0.\H,-4.1668870158,0.7213564209,0.\Cl,
 -2.045431646,2.6503107841,0.\H,0.1376465796,0.8272517913,0.\Cl,0.77802
 66942,-1.9439010294,0.\H,-1.9011903102,-2.9652891992,0.\\Version=ES64L
 -G16RevB.01\State=2-A'\HF=-1150.7128154\S2=0.762379\S2-1=0.\S2A=0.7500
 72\RMSD=2.894e-09\RMSF=1.006e-04\ZeroPoint=0.0688531\Thermal=0.0754639
 \Dipole=-0.2813033,-0.1728802,0.\DipoleDeriv=-0.1184595,-0.1121736,0.,
 -0.0416304,-0.3649357,0.,0.,0.,-0.0984624,0.2420359,-0.0507138,0.,-0.0
 556625,1.2911013,0.,0.,0.,-0.0053769,-0.2427561,0.2301809,0.,0.2301809
 ,-0.4758348,0.,0.,0.,-0.1118189,1.0341879,-0.4567248,0.,-0.4517761,0.4
 989492,0.,0.,0.,-0.0053769,-0.3766284,0.0890791,0.,0.0185358,-0.106766
 9,0.,0.,0.,-0.0984624,-0.0055244,-0.1055701,0.,-0.1055701,0.1013747,0.
 ,0.,0.,-0.0414043,0.0720922,0.0347202,0.,0.0402277,0.0784388,0.,0.,0.,
 0.161507,-0.0928103,0.0146286,0.,0.0592455,-0.8623555,0.,0.,0.,-0.0576
 876,0.0560871,-0.0200992,0.,-0.0200992,0.0764393,0.,0.,0.,0.1532631,-0
 .6755718,0.3542944,0.,0.3096775,-0.279594,0.,0.,0.,-0.0576875,0.107347
 4,0.0223782,0.,0.0168707,0.0431836,0.,0.,0.,0.161507\Polar=101.4862282
 ,-13.4659312,115.1216824,0.,0.,50.2838864\Quadrupole=1.5566926,0.39594
 32,-1.9526358,1.1463182,0.,0.\PG=CS [SG(C6H3Cl2)]\NImag=0\\0.70219118,
 -0.08178978,0.67829933,0.,0.,0.11903651,-0.27853963,-0.03860126,0.,0.6
 4919896,-0.12483548,-0.14551186,0.,-0.00306306,0.51756434,0.,0.,-0.062
 87616,0.,0.,0.12220634,-0.05315839,-0.03284789,0.,-0.29646100,0.119509
 60,0.,0.74413740,0.02420839,0.06722522,0.,0.04298568,-0.15060433,0.,0.
 04866129,0.69486356,0.,0.,0.00793753,0.,0.,-0.06156802,0.,0.,0.1246804
 9,-0.01623550,-0.03639652,0.,0.03765120,0.02800191,0.,-0.11487942,0.02
 757583,0.,0.54195344,-0.03809015,-0.06517176,0.,0.10280927,-0.02857778
 ,0.,-0.04894808,-0.33218594,0.,0.05123475,0.62480994,0.,0.,-0.00177588
 ,0.,0.,0.00253713,0.,0.,-0.06156802,0.,0.,0.12220633,0.03507563,0.0761
 5775,0.,-0.08520476,-0.00147776,0.,0.03918128,-0.07959895,0.,-0.238517
 91,-0.05886404,0.,0.61725253,0.03555406,-0.02148345,0.,-0.00317139,0.0
 0379752,0.,-0.02254268,-0.02511445,0.,-0.14509825,-0.18553358,0.,-0.03
 878582,0.76323808,0.,0.,0.00584512,0.,0.,-0.00177588,0.,0.,0.00793753,
 0.,0.,-0.06287616,0.,0.,0.11903649,-0.10415359,0.01165121,0.,0.0482550
 3,-0.01828616,0.,-0.02625184,0.03504497,0.,-0.07142156,-0.03751248,0.,
 -0.28128204,0.14102600,0.,0.43530610,0.05134684,-0.35858169,0.,-0.0981
 0408,-0.04317102,0.,0.03504498,-0.06173800,0.,0.04230544,0.07650558,0.
 ,0.10133037,-0.18145323,0.,-0.15512157,0.59238053,0.,0.,-0.05103429,0.
 ,0.,0.01269715,0.,0.,-0.00370237,0.,0.,0.01269715,0.,0.,-0.05103429,0.
 ,0.,0.07562901,-0.28095572,0.11921376,0.,-0.01849456,0.01418922,0.,-0.
 00249101,-0.00350752,0.,-0.00002493,-0.00078337,0.,0.00120911,-0.00195
 445,0.,0.00405076,0.00314318,0.,0.29592913,0.12698333,-0.11748348,0.,-
 0.01578802,0.00984609,0.,-0.00318058,-0.00127909,0.,-0.00121858,-0.001
 26077,0.,0.00068915,-0.00477620,0.,0.02432903,-0.01143173,0.,-0.131698
 24,0.12484227,0.,0.,-0.03258766,0.,0.,0.00449028,0.,0.,0.00545277,0.,0
 .,-0.00018424,0.,0.,0.00570822,0.,0.,-0.00158744,0.,0.,0.02171587,0.00
 309418,-0.02644579,0.,-0.03937651,0.00251124,0.,0.00209321,0.02878582,
 0.,-0.00340471,-0.00212932,0.,0.00252378,0.00080276,0.,-0.00375625,-0.
 00008211,0.,0.00116456,-0.00044470,0.,0.03684486,0.00033534,-0.0376614
 2,0.,0.00365900,-0.17207484,0.,0.00223714,-0.03676414,0.,0.00189756,0.
 00340537,0.,0.00114013,-0.00204809,0.,-0.00609745,-0.00067555,0.,0.000
 79337,0.00087892,0.,-0.00467983,0.24553480,0.,0.,0.00528699,0.,0.,-0.0
 2311141,0.,0.,0.00465547,0.,0.,0.00508211,0.,0.,-0.00102894,0.,0.,0.00
 446706,0.,0.,-0.00267156,0.,0.,0.01057918,-0.00292095,0.00311301,0.,-0
 .01713584,-0.01543785,0.,-0.27161471,-0.13341781,0.,0.00397346,0.00328
 967,0.,0.00125207,0.00121014,0.,0.00024949,0.00125196,0.,-0.00069726,-
 0.00069203,0.,0.00081352,-0.00042415,0.,0.28490926,0.00332292,-0.00093
 671,0.,0.01397719,0.01012401,0.,-0.13341781,-0.13651731,0.,-0.02612537
 ,-0.01098528,0.,0.00100023,-0.00510974,0.,0.00125196,-0.00101823,0.,0.
 00066894,0.00063207,0.,0.00076115,0.00065031,0.,0.14021094,0.14293320,
 0.,0.,0.00548855,0.,0.,0.00250269,0.,0.,-0.03393362,0.,0.,0.00250269,0
 .,0.,0.00548855,0.,0.,-0.00101159,0.,0.,0.00019652,0.,0.,-0.00275156,0
 .,0.,0.02407282,-0.00033230,0.00258615,0.,0.00192249,-0.00079957,0.,-0
 .01633389,0.01156668,0.,-0.14251341,0.05587665,0.,-0.03986826,0.022086
 99,0.,-0.00379444,-0.00607811,0.,0.00006266,0.00011686,0.,-0.00022321,
 0.00110500,0.,0.00081942,-0.00042714,0.,0.19918323,0.00224878,0.000807
 99,0.,-0.00482645,-0.00192183,0.,0.03811536,-0.01833704,0.,0.05472889,
 -0.06893797,0.,-0.00469414,0.00530102,0.,-0.00006278,-0.00063736,0.,0.
 00004538,0.00018643,0.,0.00095837,-0.00126789,0.,0.00075816,0.00064441
 ,0.,-0.08687086,0.08319647,0.,0.,-0.00102894,0.,0.,0.00508211,0.,0.,0.
 00465547,0.,0.,-0.02311141,0.,0.,0.00528699,0.,0.,0.00446706,0.,0.,-0.
 00046560,0.,0.,-0.00004175,0.,0.,-0.00275156,0.,0.,0.01057918,-0.00406
 491,0.00335936,0.,-0.00181539,-0.00031208,0.,-0.00422162,-0.00230438,0
 .,0.00341934,-0.02688291,0.,-0.05162143,0.01087265,0.,0.00279834,0.024
 96313,0.,0.00024725,0.00090378,0.,0.00022656,0.00003388,0.,0.00035154,
 -0.00122302,0.,0.00107771,-0.00040073,0.,0.05360262,0.00071576,0.00049
 782,0.,0.00012313,0.00052970,0.,-0.00263132,0.00045152,0.,0.00309434,-
 0.01206781,0.,0.00310308,-0.34681788,0.,0.00377727,-0.01017930,0.,-0.0
 0011027,-0.00015450,0.,-0.00003760,0.00002253,0.,0.00013794,-0.0004167
 3,0.,0.00083735,0.00096577,0.,-0.00900967,0.36716889,0.,0.,0.00570822,
 0.,0.,-0.00018424,0.,0.,0.00545277,0.,0.,0.00449028,0.,0.,-0.03258764,
 0.,0.,-0.00158744,0.,0.,-0.00006716,0.,0.,-0.00046561,0.,0.,0.00019652
 ,0.,0.,-0.00267156,0.,0.,0.02171585\\0.00026489,-0.00004442,0.,-0.0000
 9214,0.00017496,0.,-0.00010872,-0.00006683,0.,0.00011449,-0.00016122,0
 .,0.00008003,0.00025634,0.,-0.00025356,-0.00015582,0.,0.00002641,0.000
 01489,0.,0.00000706,-0.00004310,0.,-0.00002838,-0.00001744,0.,-0.00003
 528,0.00002577,0.,0.00002521,0.00001687,0.\\\@


 A DANDELION FROM A LOVER MEANS MORE THAN AN ORCHID FROM A FRIEND.
 Job cpu time:       0 days  0 hours 24 minutes 43.0 seconds.
 Elapsed time:       0 days  0 hours  6 minutes 12.3 seconds.
 File lengths (MBytes):  RWF=    142 Int=      0 D2E=      0 Chk=     34 Scr=      1
 Normal termination of Gaussian 16 at Tue Dec  9 14:13:17 2025.
