 Entering Gaussian System, Link 0=g16
 Initial command:
 /share/software/user/restricted/gaussian/g16.B01/l1.exe "/home/users/jlapier/Chloroaromatics/Gau-14184.inp" -scrdir="/home/users/jlapier/Chloroaromatics/"
 Entering Link 1 = /share/software/user/restricted/gaussian/g16.B01/l1.exe PID=     14185.
  
 Copyright (c) 1988-2017, Gaussian, Inc.  All Rights Reserved.
  
 This is part of the Gaussian(R) 16 program.  It is based on
 the Gaussian(R) 09 system (copyright 2009, Gaussian, Inc.),
 the Gaussian(R) 03 system (copyright 2003, Gaussian, Inc.),
 the Gaussian(R) 98 system (copyright 1998, Gaussian, Inc.),
 the Gaussian(R) 94 system (copyright 1995, Gaussian, Inc.),
 the Gaussian 92(TM) system (copyright 1992, Gaussian, Inc.),
 the Gaussian 90(TM) system (copyright 1990, Gaussian, Inc.),
 the Gaussian 88(TM) system (copyright 1988, Gaussian, Inc.),
 the Gaussian 86(TM) system (copyright 1986, Carnegie Mellon
 University), and the Gaussian 82(TM) system (copyright 1983,
 Carnegie Mellon University). Gaussian is a federally registered
 trademark of Gaussian, Inc.
  
 This software contains proprietary and confidential information,
 including trade secrets, belonging to Gaussian, Inc.
  
 This software is provided under written license and may be
 used, copied, transmitted, or stored only in accord with that
 written license.
  
 The following legend is applicable only to US Government
 contracts under FAR:
  
                    RESTRICTED RIGHTS LEGEND
  
 Use, reproduction and disclosure by the US Government is
 subject to restrictions as set forth in subparagraphs (a)
 and (c) of the Commercial Computer Software - Restricted
 Rights clause in FAR 52.227-19.
  
 Gaussian, Inc.
 340 Quinnipiac St., Bldg. 40, Wallingford CT 06492
  
  
 ---------------------------------------------------------------
 Warning -- This program may not be used in any manner that
 competes with the business of Gaussian, Inc. or will provide
 assistance to any competitor of Gaussian, Inc.  The licensee
 of this program is prohibited from giving any competitor of
 Gaussian, Inc. access to this program.  By using this program,
 the user acknowledges that Gaussian, Inc. is engaged in the
 business of creating and licensing software in the field of
 computational chemistry and represents and warrants to the
 licensee that it is not a competitor of Gaussian, Inc. and that
 it will not use this program in any manner prohibited above.
 ---------------------------------------------------------------
  

 Cite this work as:
 Gaussian 16, Revision B.01,
 M. J. Frisch, G. W. Trucks, H. B. Schlegel, G. E. Scuseria, 
 M. A. Robb, J. R. Cheeseman, G. Scalmani, V. Barone, 
 G. A. Petersson, H. Nakatsuji, X. Li, M. Caricato, A. V. Marenich, 
 J. Bloino, B. G. Janesko, R. Gomperts, B. Mennucci, H. P. Hratchian, 
 J. V. Ortiz, A. F. Izmaylov, J. L. Sonnenberg, D. Williams-Young, 
 F. Ding, F. Lipparini, F. Egidi, J. Goings, B. Peng, A. Petrone, 
 T. Henderson, D. Ranasinghe, V. G. Zakrzewski, J. Gao, N. Rega, 
 G. Zheng, W. Liang, M. Hada, M. Ehara, K. Toyota, R. Fukuda, 
 J. Hasegawa, M. Ishida, T. Nakajima, Y. Honda, O. Kitao, H. Nakai, 
 T. Vreven, K. Throssell, J. A. Montgomery, Jr., J. E. Peralta, 
 F. Ogliaro, M. J. Bearpark, J. J. Heyd, E. N. Brothers, K. N. Kudin, 
 V. N. Staroverov, T. A. Keith, R. Kobayashi, J. Normand, 
 K. Raghavachari, A. P. Rendell, J. C. Burant, S. S. Iyengar, 
 J. Tomasi, M. Cossi, J. M. Millam, M. Klene, C. Adamo, R. Cammi, 
 J. W. Ochterski, R. L. Martin, K. Morokuma, O. Farkas, 
 J. B. Foresman, and D. J. Fox, Gaussian, Inc., Wallingford CT, 2016.
 
 ******************************************
 Gaussian 16:  ES64L-G16RevB.01 20-Dec-2017
                 9-Dec-2025 
 ******************************************
 %mem=8GB
 %nprocshare=4
 Will use up to    4 processors via shared memory.
 %oldchk=geometry_chks/_3ClBzNeutralRadical.chk
 %chk=frequency_chks/_3ClBzNeutralRadical_Freq.chk
 Copying data from "geometry_chks/_3ClBzNeutralRadical.chk" to current chk file "frequency_chks/_3ClBzNeutralRadical_Freq.chk"
 IOpt=  2 FromEx=T IUOpen= 4 IOptOp= 5 NList=   0 IFRang= 0 IUIn= 4 IUOut= 2.
 -------------------------------------------------------
 # opt freq 6-311++g(d,p) guess=read geom=allcheck m062x
 -------------------------------------------------------
 1/18=20,19=15,26=3,29=7,38=1/1,3;
 2/9=110,12=2,40=1/2;
 3/5=4,6=6,7=1111,11=2,14=-4,25=1,30=1,71=1,74=-55,116=-2/1,2,3;
 4/5=1/1;
 5/5=2,38=6/2;
 6/7=2,8=2,9=2,10=2,28=1/1;
 7//1,2,3,16;
 1/18=20,19=15,26=3/3(2);
 2/9=110/2;
 99//99;
 2/9=110/2;
 3/5=4,6=6,7=1111,11=2,14=-2,25=1,30=1,71=1,74=-55/1,2,3;
 4/5=5,16=3,69=1/1;
 5/5=2,38=5/2;
 7//1,2,3,16;
 1/18=20,19=15,26=3/3(-5);
 2/9=110/2;
 6/7=2,8=2,9=2,10=2,19=2,28=1/1;
 99/9=1/99;
 Structure from the checkpoint file:  "frequency_chks/_3ClBzNeutralRadical_Freq.chk"
 ------------------------------
 Neutral Radical (removed 1) _3
 ------------------------------
 Charge =  0 Multiplicity = 2
 Redundant internal coordinates found in file.  (old form).
 C,0,-3.1804558598,0.1867630731,0.
 C,0,-1.9684601558,0.9136338301,0.
 C,0,-0.7344510822,0.2367862043,0.
 C,0,-0.6812737657,-1.1634681525,0.
 C,0,-1.8709755145,-1.9176820946,0.
 C,0,-3.0229650196,-1.1742510721,0.
 H,0,-4.1615096575,0.6769704377,0.
 Cl,0,-2.0046390248,2.6072848905,0.
 H,0,0.2022495337,0.8146661601,0.
 H,0,0.2916226299,-1.6743555651,0.
 H,0,-1.8690120836,-3.0138277113,0.
 Recover connectivity data from disk.

 GradGradGradGradGradGradGradGradGradGradGradGradGradGradGradGradGradGrad
 Berny optimization.
 Initialization pass.
                           ----------------------------
                           !    Initial Parameters    !
                           ! (Angstroms and Degrees)  !
 --------------------------                            --------------------------
 ! Name  Definition              Value          Derivative Info.                !
 --------------------------------------------------------------------------------
 ! R1    R(1,2)                  1.4132         estimate D2E/DX2                !
 ! R2    R(1,6)                  1.3701         estimate D2E/DX2                !
 ! R3    R(1,7)                  1.0967         estimate D2E/DX2                !
 ! R4    R(2,3)                  1.4074         estimate D2E/DX2                !
 ! R5    R(2,8)                  1.694          estimate D2E/DX2                !
 ! R6    R(3,4)                  1.4013         estimate D2E/DX2                !
 ! R7    R(3,9)                  1.1006         estimate D2E/DX2                !
 ! R8    R(4,5)                  1.4086         estimate D2E/DX2                !
 ! R9    R(4,10)                 1.0989         estimate D2E/DX2                !
 ! R10   R(5,6)                  1.371          estimate D2E/DX2                !
 ! R11   R(5,11)                 1.0961         estimate D2E/DX2                !
 ! A1    A(2,1,6)              114.3517         estimate D2E/DX2                !
 ! A2    A(2,1,7)              122.4975         estimate D2E/DX2                !
 ! A3    A(6,1,7)              123.1508         estimate D2E/DX2                !
 ! A4    A(1,2,3)              120.3031         estimate D2E/DX2                !
 ! A5    A(1,2,8)              119.7287         estimate D2E/DX2                !
 ! A6    A(3,2,8)              119.9683         estimate D2E/DX2                !
 ! A7    A(2,3,4)              120.9194         estimate D2E/DX2                !
 ! A8    A(2,3,9)              119.5837         estimate D2E/DX2                !
 ! A9    A(4,3,9)              119.4969         estimate D2E/DX2                !
 ! A10   A(3,4,5)              120.1979         estimate D2E/DX2                !
 ! A11   A(3,4,10)             119.8797         estimate D2E/DX2                !
 ! A12   A(5,4,10)             119.9224         estimate D2E/DX2                !
 ! A13   A(4,5,6)              114.7913         estimate D2E/DX2                !
 ! A14   A(4,5,11)             122.2701         estimate D2E/DX2                !
 ! A15   A(6,5,11)             122.9386         estimate D2E/DX2                !
 ! A16   A(1,6,5)              129.4367         estimate D2E/DX2                !
 ! D1    D(6,1,2,3)              0.0            estimate D2E/DX2                !
 ! D2    D(6,1,2,8)            180.0            estimate D2E/DX2                !
 ! D3    D(7,1,2,3)            180.0            estimate D2E/DX2                !
 ! D4    D(7,1,2,8)              0.0            estimate D2E/DX2                !
 ! D5    D(2,1,6,5)              0.0            estimate D2E/DX2                !
 ! D6    D(7,1,6,5)            180.0            estimate D2E/DX2                !
 ! D7    D(1,2,3,4)              0.0            estimate D2E/DX2                !
 ! D8    D(1,2,3,9)            180.0            estimate D2E/DX2                !
 ! D9    D(8,2,3,4)            180.0            estimate D2E/DX2                !
 ! D10   D(8,2,3,9)              0.0            estimate D2E/DX2                !
 ! D11   D(2,3,4,5)              0.0            estimate D2E/DX2                !
 ! D12   D(2,3,4,10)           180.0            estimate D2E/DX2                !
 ! D13   D(9,3,4,5)            180.0            estimate D2E/DX2                !
 ! D14   D(9,3,4,10)             0.0            estimate D2E/DX2                !
 ! D15   D(3,4,5,6)              0.0            estimate D2E/DX2                !
 ! D16   D(3,4,5,11)           180.0            estimate D2E/DX2                !
 ! D17   D(10,4,5,6)           180.0            estimate D2E/DX2                !
 ! D18   D(10,4,5,11)            0.0            estimate D2E/DX2                !
 ! D19   D(4,5,6,1)              0.0            estimate D2E/DX2                !
 ! D20   D(11,5,6,1)           180.0            estimate D2E/DX2                !
 --------------------------------------------------------------------------------
 Trust Radius=3.00D-01 FncErr=1.00D-07 GrdErr=1.00D-06 EigMax=2.50D+02 EigMin=1.00D-04
 Number of steps in this run=     57 maximum allowed number of steps=    100.
 GradGradGradGradGradGradGradGradGradGradGradGradGradGradGradGradGradGrad

                          Input orientation:                          
 ---------------------------------------------------------------------
 Center     Atomic      Atomic             Coordinates (Angstroms)
 Number     Number       Type             X           Y           Z
 ---------------------------------------------------------------------
      1          6           0       -3.180456    0.186763   -0.000000
      2          6           0       -1.968460    0.913634    0.000000
      3          6           0       -0.734451    0.236786    0.000000
      4          6           0       -0.681274   -1.163468    0.000000
      5          6           0       -1.870976   -1.917682   -0.000000
      6          6           0       -3.022965   -1.174251   -0.000000
      7          1           0       -4.161510    0.676970   -0.000000
      8         17           0       -2.004639    2.607285    0.000000
      9          1           0        0.202250    0.814666    0.000000
     10          1           0        0.291623   -1.674356    0.000000
     11          1           0       -1.869012   -3.013828   -0.000000
 ---------------------------------------------------------------------
                    Distance matrix (angstroms):
                    1          2          3          4          5
     1  C    0.000000
     2  C    1.413250   0.000000
     3  C    2.446516   1.407445   0.000000
     4  C    2.840605   2.443604   1.401264   0.000000
     5  C    2.478594   2.832994   2.435862   1.408627   0.000000
     6  C    1.370096   2.339069   2.688554   2.341716   1.371047
     7  H    1.096709   2.205782   3.455212   3.936909   3.461036
     8  Cl   2.690998   1.694037   2.689357   3.996232   4.526941
     9  H    3.440488   2.172965   1.100615   2.166478   3.429867
    10  H    3.939428   3.435937   2.169168   1.098878   2.176244
    11  H    3.458853   3.928720   3.442923   2.198762   1.096147
                    6          7          8          9         10
     6  C    0.000000
     7  H    2.173317   0.000000
     8  Cl   3.916248   2.894513   0.000000
     9  H    3.789169   4.365931   2.843209   0.000000
    10  H    3.352103   5.035784   4.858525   2.490626   0.000000
    11  H    2.171555   4.344829   5.622749   4.352871   2.542150
                   11
    11  H    0.000000
 Stoichiometry    C6H4Cl(2)
 Framework group  CS[SG(C6H4Cl)]
 Deg. of freedom    19
 Full point group                 CS      NOp   2
 Largest Abelian subgroup         CS      NOp   2
 Largest concise Abelian subgroup C1      NOp   1
                         Standard orientation:                         
 ---------------------------------------------------------------------
 Center     Atomic      Atomic             Coordinates (Angstroms)
 Number     Number       Type             X           Y           Z
 ---------------------------------------------------------------------
      1          6           0       -1.298215   -0.054694    0.000000
      2          6           0        0.000000    0.503797    0.000000
      3          6           0        1.132557   -0.331796   -0.000000
      4          6           0        0.998247   -1.726608   -0.000000
      5          6           0       -0.281526   -2.315174    0.000000
      6          6           0       -1.323906   -1.424549    0.000000
      7          1           0       -2.205010    0.562147    0.000000
      8         17           0        0.190341    2.187107   -0.000000
      9          1           0        2.138045    0.115806   -0.000000
     10          1           0        1.894196   -2.362854   -0.000000
     11          1           0       -0.425976   -3.401762    0.000000
 ---------------------------------------------------------------------
 Rotational constants (GHZ):           6.0956667           1.6069820           1.2717219
 Standard basis: 6-311++G(d,p) (5D, 7F)
 There are   149 symmetry adapted cartesian basis functions of A'  symmetry.
 There are    48 symmetry adapted cartesian basis functions of A"  symmetry.
 There are   142 symmetry adapted basis functions of A'  symmetry.
 There are    48 symmetry adapted basis functions of A"  symmetry.
   190 basis functions,   305 primitive gaussians,   197 cartesian basis functions
    29 alpha electrons       28 beta electrons
       nuclear repulsion energy       305.5131292908 Hartrees.
 NAtoms=   11 NActive=   11 NUniq=   11 SFac= 1.00D+00 NAtFMM=   60 NAOKFM=F Big=F
 Integral buffers will be    131072 words long.
 Raffenetti 2 integral format.
 Two-electron integral symmetry is turned on.
 One-electron integrals computed using PRISM.
 NBasis=   190 RedAO= T EigKep=  1.92D-06  NBF=   142    48
 NBsUse=   190 1.00D-06 EigRej= -1.00D+00 NBFU=   142    48
 Initial guess from the checkpoint file:  "frequency_chks/_3ClBzNeutralRadical_Freq.chk"
 B after Tr=    -0.000000   -0.000000   -0.000000
         Rot=    1.000000   -0.000000    0.000000    0.000000 Ang=   0.00 deg.
 Initial guess orbital symmetries:
 Alpha Orbitals:
       Occupied  (A') (A') (A') (A') (A') (A') (A') (A') (A') (A')
                 (A") (A') (A') (A") (A') (A') (A") (A") (A") (A")
                 (A') (A") (A') (A') (A') (A') (A') (A') (A')
       Virtual   (A') (A') (A') (A') (A') (A') (A') (A') (A') (A')
                 (A') (A') (A') (A') (A') (A') (A') (A') (A') (A')
                 (A') (A') (A') (A') (A') (A') (A') (A') (A') (A')
                 (A') (A') (A') (A') (A') (A') (A') (A') (A') (A')
                 (A') (A') (A') (A') (A') (A') (A') (A') (A') (A')
                 (A') (A') (A') (A') (A') (A') (A') (A') (A') (A')
                 (A') (A') (A') (A') (A') (A') (A') (A') (A') (A')
                 (A') (A') (A') (A') (A') (A') (A') (A') (A') (A')
                 (A') (A') (A') (A') (A') (A') (A') (A') (A') (A')
                 (A') (A') (A') (A') (A') (A') (A') (A') (A') (A')
                 (A') (A') (A') (A') (A') (A') (A') (A') (A') (A')
                 (A') (A') (A') (A') (A') (A') (A') (A') (A') (A')
                 (A") (A") (A") (A") (A") (A") (A") (A") (A") (A")
                 (A") (A") (A") (A") (A") (A") (A") (A") (A") (A")
                 (A") (A") (A") (A") (A") (A") (A") (A") (A") (A")
                 (A") (A") (A") (A") (A") (A") (A") (A") (A") (A")
                 (A")
 Beta  Orbitals:
       Occupied  (A') (A') (A') (A') (A') (A') (A') (A') (A') (A')
                 (A") (A') (A') (A") (A') (A") (A") (A") (A') (A")
                 (A') (A") (A') (A') (A') (A') (A') (A')
       Virtual   (A') (A') (A') (A') (A') (A') (A') (A') (A') (A')
                 (A') (A') (A') (A') (A') (A') (A') (A') (A') (A')
                 (A') (A') (A') (A') (A') (A') (A') (A') (A') (A')
                 (A') (A') (A') (A') (A') (A') (A') (A') (A') (A')
                 (A') (A') (A') (A') (A') (A') (A') (A') (A') (A')
                 (A') (A') (A') (A') (A') (A') (A') (A') (A') (A')
                 (A') (A') (A') (A') (A') (A') (A') (A') (A') (A')
                 (A') (A') (A') (A') (A') (A') (A') (A') (A') (A')
                 (A') (A') (A') (A') (A') (A') (A') (A') (A') (A')
                 (A') (A') (A') (A') (A') (A') (A') (A') (A') (A')
                 (A') (A') (A') (A') (A') (A') (A') (A') (A') (A')
                 (A') (A') (A') (A') (A') (A') (A') (A') (A') (A')
                 (A') (A") (A") (A") (A") (A") (A") (A") (A") (A")
                 (A") (A") (A") (A") (A") (A") (A") (A") (A") (A")
                 (A") (A") (A") (A") (A") (A") (A") (A") (A") (A")
                 (A") (A") (A") (A") (A") (A") (A") (A") (A") (A")
                 (A") (A")
 Initial guess <Sx>= 0.0000 <Sy>= 0.0000 <Sz>= 0.5000 <S**2>= 0.7815 S= 0.5156
 Keep R1 and R2 ints in memory in symmetry-blocked form, NReq=262273818.
 Requested convergence on RMS density matrix=1.00D-08 within 128 cycles.
 Requested convergence on MAX density matrix=1.00D-06.
 Requested convergence on             energy=1.00D-06.
 No special actions if energy rises.
 EnCoef did     5 forward-backward iterations
 SCF Done:  E(UM062X) =  -691.110648560     A.U. after   25 cycles
            NFock= 25  Conv=0.59D-08     -V/T= 2.0029
 <Sx>= 0.0000 <Sy>= 0.0000 <Sz>= 0.5000 <S**2>= 0.7622 S= 0.5061
 <L.S>=  0.00000000000    
 Annihilation of the first spin contaminant:
 S**2 before annihilation     0.7622,   after     0.7501

 **********************************************************************

            Population analysis using the SCF Density.

 **********************************************************************

 Orbital symmetries:
 Alpha Orbitals:
       Occupied  (A') (A') (A') (A') (A') (A') (A') (A') (A') (A")
                 (A') (A') (A') (A') (A') (A') (A') (A') (A') (A')
                 (A') (A") (A') (A') (A") (A') (A") (A') (A")
       Virtual   (A") (A') (A") (A') (A') (A') (A') (A") (A') (A')
                 (A") (A') (A") (A') (A') (A") (A') (A') (A") (A')
                 (A') (A') (A") (A") (A') (A') (A') (A') (A") (A')
                 (A') (A') (A') (A') (A') (A') (A') (A') (A') (A')
                 (A') (A') (A') (A') (A') (A') (A") (A') (A') (A")
                 (A') (A') (A') (A") (A') (A") (A') (A") (A") (A')
                 (A') (A") (A') (A') (A') (A') (A') (A') (A") (A')
                 (A') (A') (A') (A') (A") (A') (A') (A') (A') (A")
                 (A") (A') (A") (A") (A') (A') (A") (A') (A") (A')
                 (A') (A') (A') (A') (A") (A") (A") (A') (A') (A')
                 (A") (A') (A') (A') (A") (A') (A") (A') (A") (A')
                 (A') (A") (A') (A") (A') (A") (A") (A') (A') (A')
                 (A') (A') (A') (A') (A") (A') (A') (A') (A') (A')
                 (A') (A") (A") (A') (A") (A") (A') (A") (A') (A')
                 (A') (A') (A') (A') (A') (A') (A') (A') (A') (A')
                 (A') (A') (A') (A') (A') (A') (A') (A") (A') (A')
                 (A')
 Beta  Orbitals:
       Occupied  (A') (A') (A') (A') (A') (A') (A') (A') (A') (A")
                 (A') (A') (A') (A') (A') (A') (A') (A') (A') (A')
                 (A') (A") (A') (A') (A") (A') (A") (A")
       Virtual   (A') (A") (A') (A') (A") (A') (A') (A') (A") (A')
                 (A') (A") (A") (A') (A') (A') (A") (A') (A') (A')
                 (A") (A') (A') (A") (A") (A') (A') (A') (A') (A')
                 (A") (A') (A') (A') (A') (A') (A') (A') (A') (A')
                 (A') (A') (A') (A') (A') (A') (A') (A") (A') (A')
                 (A") (A') (A') (A') (A') (A") (A") (A') (A') (A")
                 (A") (A") (A') (A') (A') (A') (A') (A') (A") (A')
                 (A') (A') (A') (A') (A') (A") (A') (A') (A') (A')
                 (A") (A") (A') (A") (A") (A') (A') (A") (A') (A")
                 (A') (A') (A') (A') (A') (A") (A") (A") (A') (A')
                 (A') (A") (A') (A') (A') (A") (A') (A") (A') (A")
                 (A') (A') (A") (A') (A") (A') (A") (A") (A') (A')
                 (A') (A') (A') (A') (A') (A") (A') (A') (A') (A')
                 (A') (A') (A") (A") (A') (A") (A") (A') (A") (A')
                 (A') (A') (A') (A') (A') (A') (A') (A') (A') (A')
                 (A') (A') (A') (A') (A') (A') (A') (A') (A") (A')
                 (A') (A')
 The electronic state is 2-A'.
 Alpha  occ. eigenvalues -- -102.68464 -10.62395 -10.58236 -10.57350 -10.57222
 Alpha  occ. eigenvalues --  -10.56720 -10.56691  -9.82819  -7.55341  -7.54662
 Alpha  occ. eigenvalues --   -7.54642  -1.01634  -0.95635  -0.86391  -0.83820
 Alpha  occ. eigenvalues --   -0.70831  -0.68425  -0.60670  -0.55408  -0.53997
 Alpha  occ. eigenvalues --   -0.51742  -0.48438  -0.47342  -0.44729  -0.41684
 Alpha  occ. eigenvalues --   -0.39138  -0.33216  -0.30993  -0.30778
 Alpha virt. eigenvalues --   -0.00514  -0.00303   0.00375   0.01196   0.01437
 Alpha virt. eigenvalues --    0.03389   0.04166   0.05913   0.06665   0.07182
 Alpha virt. eigenvalues --    0.08751   0.09083   0.09360   0.10447   0.11955
 Alpha virt. eigenvalues --    0.12400   0.12977   0.13340   0.13718   0.13918
 Alpha virt. eigenvalues --    0.14204   0.14851   0.14927   0.15525   0.15656
 Alpha virt. eigenvalues --    0.15929   0.18349   0.18785   0.20603   0.20702
 Alpha virt. eigenvalues --    0.21708   0.21952   0.24254   0.25073   0.25668
 Alpha virt. eigenvalues --    0.26411   0.27644   0.28741   0.29558   0.30753
 Alpha virt. eigenvalues --    0.34392   0.35840   0.36517   0.37933   0.48076
 Alpha virt. eigenvalues --    0.48225   0.48245   0.50546   0.51447   0.55194
 Alpha virt. eigenvalues --    0.56929   0.57270   0.57646   0.59138   0.60923
 Alpha virt. eigenvalues --    0.60941   0.63392   0.63964   0.64195   0.64806
 Alpha virt. eigenvalues --    0.69940   0.70412   0.70967   0.75976   0.77935
 Alpha virt. eigenvalues --    0.79082   0.80283   0.85756   0.85792   0.86859
 Alpha virt. eigenvalues --    0.87645   0.89885   0.91534   0.91974   0.92171
 Alpha virt. eigenvalues --    0.94180   0.96848   0.99432   1.00490   1.04129
 Alpha virt. eigenvalues --    1.04959   1.06942   1.13131   1.14318   1.18878
 Alpha virt. eigenvalues --    1.21584   1.24378   1.27004   1.37123   1.39212
 Alpha virt. eigenvalues --    1.50709   1.53013   1.54640   1.57747   1.59031
 Alpha virt. eigenvalues --    1.62246   1.64388   1.67274   1.70697   1.72064
 Alpha virt. eigenvalues --    1.76692   1.78665   1.88215   1.90519   1.90890
 Alpha virt. eigenvalues --    1.95389   1.95584   1.98409   1.99344   2.01325
 Alpha virt. eigenvalues --    2.03399   2.04561   2.08296   2.22833   2.26901
 Alpha virt. eigenvalues --    2.31956   2.34203   2.37517   2.41938   2.45340
 Alpha virt. eigenvalues --    2.50177   2.52496   2.58211   2.58687   2.69529
 Alpha virt. eigenvalues --    2.69712   2.72329   2.73467   2.75093   2.77383
 Alpha virt. eigenvalues --    2.78217   2.81274   2.83780   2.86197   2.92329
 Alpha virt. eigenvalues --    2.93794   3.02882   3.11004   3.16592   3.26284
 Alpha virt. eigenvalues --    3.34975   3.41228   3.50265   3.57802   3.69919
 Alpha virt. eigenvalues --    3.82161   4.02505   4.12715   4.15059   4.78350
 Alpha virt. eigenvalues --    9.98060  23.54498  23.91546  23.98738  24.10614
 Alpha virt. eigenvalues --   24.13372  24.24320  25.93259  26.23162  26.73333
 Alpha virt. eigenvalues --  216.08139
  Beta  occ. eigenvalues -- -102.68447 -10.62295 -10.57309 -10.57262 -10.57217
  Beta  occ. eigenvalues --  -10.56751 -10.56708  -9.82813  -7.55308  -7.54649
  Beta  occ. eigenvalues --   -7.54633  -1.01268  -0.94809  -0.85468  -0.83146
  Beta  occ. eigenvalues --   -0.70213  -0.66831  -0.59859  -0.54685  -0.53211
  Beta  occ. eigenvalues --   -0.51267  -0.48047  -0.46006  -0.44162  -0.41087
  Beta  occ. eigenvalues --   -0.38781  -0.32362  -0.30581
  Beta virt. eigenvalues --   -0.05670  -0.00556  -0.00159   0.01531   0.01538
  Beta virt. eigenvalues --    0.01737   0.03600   0.04366   0.06055   0.06705
  Beta virt. eigenvalues --    0.08491   0.08809   0.09115   0.09263   0.10178
  Beta virt. eigenvalues --    0.12075   0.12429   0.12905   0.13366   0.13712
  Beta virt. eigenvalues --    0.13861   0.14261   0.14856   0.14883   0.15509
  Beta virt. eigenvalues --    0.15933   0.16018   0.18715   0.18955   0.20787
  Beta virt. eigenvalues --    0.21434   0.21580   0.21839   0.24698   0.25213
  Beta virt. eigenvalues --    0.25585   0.26188   0.27852   0.28959   0.29715
  Beta virt. eigenvalues --    0.31099   0.34950   0.36105   0.36667   0.38594
  Beta virt. eigenvalues --    0.48105   0.48209   0.48242   0.50716   0.51718
  Beta virt. eigenvalues --    0.55407   0.56296   0.57439   0.57757   0.58964
  Beta virt. eigenvalues --    0.59287   0.60963   0.63148   0.63886   0.63992
  Beta virt. eigenvalues --    0.64362   0.70286   0.70898   0.71425   0.75650
  Beta virt. eigenvalues --    0.77414   0.79693   0.80027   0.85933   0.85974
  Beta virt. eigenvalues --    0.86550   0.87623   0.89891   0.91341   0.92061
  Beta virt. eigenvalues --    0.92210   0.93492   0.97310   0.99516   1.00489
  Beta virt. eigenvalues --    1.04596   1.05377   1.06905   1.13482   1.14594
  Beta virt. eigenvalues --    1.19342   1.21629   1.26295   1.26571   1.37710
  Beta virt. eigenvalues --    1.40606   1.51349   1.53428   1.55830   1.58000
  Beta virt. eigenvalues --    1.59215   1.62906   1.64549   1.67535   1.71018
  Beta virt. eigenvalues --    1.72431   1.76746   1.79454   1.89320   1.90720
  Beta virt. eigenvalues --    1.90952   1.95567   1.95972   1.98754   1.99692
  Beta virt. eigenvalues --    2.01649   2.03803   2.04851   2.08352   2.23012
  Beta virt. eigenvalues --    2.27461   2.32004   2.34605   2.38040   2.42276
  Beta virt. eigenvalues --    2.45508   2.50323   2.53278   2.58371   2.58974
  Beta virt. eigenvalues --    2.69621   2.69860   2.72593   2.73672   2.75287
  Beta virt. eigenvalues --    2.77370   2.78600   2.81689   2.83818   2.86787
  Beta virt. eigenvalues --    2.92467   2.93585   3.05730   3.11098   3.16834
  Beta virt. eigenvalues --    3.26655   3.35223   3.41732   3.50452   3.58600
  Beta virt. eigenvalues --    3.70221   3.82186   4.02547   4.12811   4.15451
  Beta virt. eigenvalues --    4.78521   9.98068  23.54656  23.91751  23.98812
  Beta virt. eigenvalues --   24.10591  24.13448  24.24909  25.93299  26.23196
  Beta virt. eigenvalues --   26.73418 216.08165
          Condensed to atoms (all electrons):
               1          2          3          4          5          6
     1  C    9.490710  -0.177214  -2.747745  -1.033978   0.478727   0.511517
     2  C   -0.177214  10.768486  -2.473582  -0.214371  -1.182597  -0.307047
     3  C   -2.747745  -2.473582  12.273271   0.285802   0.471977  -1.775744
     4  C   -1.033978  -0.214371   0.285802   6.439949  -0.190260   0.456157
     5  C    0.478727  -1.182597   0.471977  -0.190260   6.645675  -0.030919
     6  C    0.511517  -0.307047  -1.775744   0.456157  -0.030919   6.659726
     7  H    0.391693  -0.061386  -0.097446   0.018068  -0.007368   0.085236
     8  Cl  -0.148394  -0.783667   0.092029   0.088108   0.054484   0.126864
     9  H   -0.102941  -0.148944   0.510301   0.042897   0.008743  -0.004399
    10  H    0.030688   0.035384  -0.035512   0.325265  -0.024580  -0.008139
    11  H   -0.014909   0.005385   0.003573  -0.013680   0.343566   0.008895
               7          8          9         10         11
     1  C    0.391693  -0.148394  -0.102941   0.030688  -0.014909
     2  C   -0.061386  -0.783667  -0.148944   0.035384   0.005385
     3  C   -0.097446   0.092029   0.510301  -0.035512   0.003573
     4  C    0.018068   0.088108   0.042897   0.325265  -0.013680
     5  C   -0.007368   0.054484   0.008743  -0.024580   0.343566
     6  C    0.085236   0.126864  -0.004399  -0.008139   0.008895
     7  H    0.471291  -0.002025  -0.002639   0.001997  -0.000359
     8  Cl  -0.002025  17.249059   0.018822  -0.007734  -0.000628
     9  H   -0.002639   0.018822   0.477642  -0.008450   0.000874
    10  H    0.001997  -0.007734  -0.008450   0.472851   0.000004
    11  H   -0.000359  -0.000628   0.000874   0.000004   0.470545
          Atomic-Atomic Spin Densities.
               1          2          3          4          5          6
     1  C    0.336386  -0.214983   0.025418  -0.173980   0.338107  -0.295454
     2  C   -0.214983   0.277332  -0.029035   0.074874  -0.147781   0.137161
     3  C    0.025418  -0.029035   0.067344  -0.094848   0.207486  -0.180728
     4  C   -0.173980   0.074874  -0.094848   0.240686  -0.280153   0.244809
     5  C    0.338107  -0.147781   0.207486  -0.280153   0.515054  -0.548177
     6  C   -0.295454   0.137161  -0.180728   0.244809  -0.548177   1.405974
     7  H    0.027062  -0.021012  -0.016303   0.004586  -0.012361   0.008352
     8  Cl   0.056211  -0.058677   0.016357  -0.027497   0.036886  -0.046014
     9  H   -0.002628  -0.006481   0.010883  -0.000757   0.008337  -0.008832
    10  H   -0.004676   0.009134  -0.010440   0.009924  -0.037966   0.025075
    11  H   -0.003119  -0.001725  -0.002464  -0.000921   0.009401  -0.006670
               7          8          9         10         11
     1  C    0.027062   0.056211  -0.002628  -0.004676  -0.003119
     2  C   -0.021012  -0.058677  -0.006481   0.009134  -0.001725
     3  C   -0.016303   0.016357   0.010883  -0.010440  -0.002464
     4  C    0.004586  -0.027497  -0.000757   0.009924  -0.000921
     5  C   -0.012361   0.036886   0.008337  -0.037966   0.009401
     6  C    0.008352  -0.046014  -0.008832   0.025075  -0.006670
     7  H    0.036386  -0.000437  -0.000716   0.000383   0.000132
     8  Cl  -0.000437   0.037374   0.001507  -0.001738   0.000155
     9  H   -0.000716   0.001507   0.003794  -0.002539  -0.000270
    10  H    0.000383  -0.001738  -0.002539   0.019361   0.002583
    11  H    0.000132   0.000155  -0.000270   0.002583   0.029431
 Mulliken charges and spin densities:
               1          2
     1  C   -0.678154   0.088344
     2  C    0.539552   0.018807
     3  C   -0.506925  -0.006330
     4  C   -0.203956  -0.003276
     5  C   -0.567448   0.088832
     6  C    0.277854   0.735494
     7  H    0.202938   0.026071
     8  Cl   0.313082   0.014126
     9  H    0.208094   0.002297
    10  H    0.218226   0.009101
    11  H    0.196735   0.026533
 Sum of Mulliken charges =  -0.00000   1.00000
 Mulliken charges and spin densities with hydrogens summed into heavy atoms:
               1          2
     1  C   -0.475216   0.114415
     2  C    0.539552   0.018807
     3  C   -0.298830  -0.004033
     4  C    0.014270   0.005825
     5  C   -0.370713   0.115365
     6  C    0.277854   0.735494
     8  Cl   0.313082   0.014126
 Electronic spatial extent (au):  <R**2>=            860.7199
 Charge=             -0.0000 electrons
 Dipole moment (field-independent basis, Debye):
    X=              0.5923    Y=             -1.2297    Z=             -0.0000  Tot=              1.3649
 Quadrupole moment (field-independent basis, Debye-Ang):
   XX=            -44.1069   YY=            -44.8584   ZZ=            -51.2920
   XY=             -2.5670   XZ=              0.0000   YZ=              0.0000
 Traceless Quadrupole moment (field-independent basis, Debye-Ang):
   XX=              2.6456   YY=              1.8940   ZZ=             -4.5396
   XY=             -2.5670   XZ=              0.0000   YZ=              0.0000
 Octapole moment (field-independent basis, Debye-Ang**2):
  XXX=              7.6060  YYY=             -3.7775  ZZZ=              0.0000  XYY=              4.6039
  XXY=              5.5169  XXZ=             -0.0000  XZZ=              1.0312  YZZ=              7.7184
  YYZ=             -0.0000  XYZ=             -0.0000
 Hexadecapole moment (field-independent basis, Debye-Ang**3):
 XXXX=           -277.0803 YYYY=           -748.7201 ZZZZ=            -60.8377 XXXY=            -35.4457
 XXXZ=              0.0000 YYYX=            -20.5597 YYYZ=              0.0000 ZZZX=              0.0000
 ZZZY=              0.0000 XXYY=           -185.8651 XXZZ=            -65.4489 YYZZ=           -159.6877
 XXYZ=              0.0000 YYXZ=              0.0000 ZZXY=             -5.7445
 N-N= 3.055131292908D+02 E-N=-2.240329419009D+03  KE= 6.891006793747D+02
 Symmetry A'   KE= 6.368165320921D+02
 Symmetry A"   KE= 5.228414728257D+01
 Symmetry A'   SP= 9.999999999999D-01
 Symmetry A"   SP= 1.506699496071D-14
                          Isotropic Fermi Contact Couplings
        Atom                 a.u.       MegaHertz       Gauss      10(-4) cm-1
     1  C(13)              0.00998      11.22237       4.00442       3.74338
     2  C(13)              0.06579      73.95670      26.38959      24.66930
     3  C(13)             -0.00868      -9.75735      -3.48167      -3.25470
     4  C(13)              0.05426      60.99439      21.76431      20.34554
     5  C(13)              0.00699       7.86143       2.80515       2.62229
     6  C(13)              0.41160     462.71874     165.10955     154.34636
     7  H(1)               0.01250      55.87529      19.93769      18.63799
     8  Cl(35)             0.00366       1.60537       0.57284       0.53549
     9  H(1)               0.00077       3.45219       1.23183       1.15153
    10  H(1)               0.00343      15.32716       5.46911       5.11259
    11  H(1)               0.01161      51.90184      18.51987      17.31259
 --------------------------------------------------------
       Center         ----  Spin Dipole Couplings  ----
                      3XX-RR        3YY-RR        3ZZ-RR
 --------------------------------------------------------
     1   Atom       -0.000976      0.098791     -0.097815
     2   Atom        0.034422     -0.029871     -0.004551
     3   Atom        0.031204      0.021744     -0.052947
     4   Atom        0.042272     -0.032656     -0.009616
     5   Atom        0.084928      0.015212     -0.100139
     6   Atom        0.727613     -0.325386     -0.402228
     7   Atom       -0.008694      0.020537     -0.011843
     8   Atom       -0.019250      0.042296     -0.023046
     9   Atom        0.001260      0.001349     -0.002610
    10   Atom        0.007570     -0.002247     -0.005323
    11   Atom        0.000011      0.012032     -0.012042
 --------------------------------------------------------
                        XY            XZ            YZ
 --------------------------------------------------------
     1   Atom        0.022284     -0.000000     -0.000000
     2   Atom        0.020642     -0.000000     -0.000000
     3   Atom        0.005316     -0.000000     -0.000000
     4   Atom        0.026401     -0.000000      0.000000
     5   Atom       -0.045415     -0.000000      0.000000
     6   Atom        0.567171     -0.000000     -0.000000
     7   Atom       -0.007220     -0.000000      0.000000
     8   Atom        0.061734      0.000000      0.000000
     9   Atom        0.000150     -0.000000     -0.000000
    10   Atom       -0.005444     -0.000000      0.000000
    11   Atom       -0.015330     -0.000000      0.000000
 --------------------------------------------------------


 ---------------------------------------------------------------------------------
              Anisotropic Spin Dipole Couplings in Principal Axis System
 ---------------------------------------------------------------------------------

       Atom             a.u.   MegaHertz   Gauss  10(-4) cm-1        Axes

              Baa    -0.0978   -13.126    -4.684    -4.378  0.0000  0.0000  1.0000
     1 C(13)  Bbb    -0.0057    -0.769    -0.274    -0.256  0.9780 -0.2085  0.0000
              Bcc     0.1035    13.894     4.958     4.635  0.2085  0.9780 -0.0000
 
              Baa    -0.0359    -4.821    -1.720    -1.608 -0.2815  0.9595 -0.0000
     2 C(13)  Bbb    -0.0046    -0.611    -0.218    -0.204  0.0000  0.0000  1.0000
              Bcc     0.0405     5.432     1.938     1.812  0.9595  0.2815 -0.0000
 
              Baa    -0.0529    -7.105    -2.535    -2.370  0.0000  0.0000  1.0000
     3 C(13)  Bbb     0.0194     2.598     0.927     0.866 -0.4094  0.9123  0.0000
              Bcc     0.0336     4.507     1.608     1.503  0.9123  0.4094 -0.0000
 
              Baa    -0.0410    -5.505    -1.964    -1.836 -0.3021  0.9533 -0.0000
     4 C(13)  Bbb    -0.0096    -1.290    -0.460    -0.430  0.0000  0.0000  1.0000
              Bcc     0.0506     6.795     2.425     2.267  0.9533  0.3021  0.0000
 
              Baa    -0.1001   -13.438    -4.795    -4.482  0.0000  0.0000  1.0000
     5 C(13)  Bbb    -0.0072    -0.964    -0.344    -0.321  0.4422  0.8969 -0.0000
              Bcc     0.1073    14.401     5.139     4.804  0.8969 -0.4422  0.0000
 
              Baa    -0.5728   -76.859   -27.425   -25.637 -0.3998  0.9166 -0.0000
     6 C(13)  Bbb    -0.4022   -53.975   -19.260   -18.004  0.0000  0.0000  1.0000
              Bcc     0.9750   130.834    46.685    43.642  0.9166  0.3998 -0.0000
 
              Baa    -0.0118    -6.319    -2.255    -2.108  0.0000  0.0000  1.0000
     7 H(1)   Bbb    -0.0104    -5.538    -1.976    -1.847  0.9738  0.2274  0.0000
              Bcc     0.0222    11.857     4.231     3.955 -0.2274  0.9738 -0.0000
 
              Baa    -0.0575    -3.007    -1.073    -1.003  0.8503 -0.5262 -0.0000
     8 Cl(35) Bbb    -0.0230    -1.206    -0.430    -0.402  0.0000  0.0000  1.0000
              Bcc     0.0805     4.213     1.503     1.405  0.5262  0.8503 -0.0000
 
              Baa    -0.0026    -1.392    -0.497    -0.464  0.0000  0.0000  1.0000
     9 H(1)   Bbb     0.0011     0.613     0.219     0.204  0.8012 -0.5984 -0.0000
              Bcc     0.0015     0.780     0.278     0.260  0.5984  0.8012 -0.0000
 
              Baa    -0.0053    -2.840    -1.013    -0.947  0.0000  0.0000  1.0000
    10 H(1)   Bbb    -0.0047    -2.491    -0.889    -0.831  0.4064  0.9137 -0.0000
              Bcc     0.0100     5.331     1.902     1.778  0.9137 -0.4064  0.0000
 
              Baa    -0.0120    -6.425    -2.293    -2.143  0.0000  0.0000  1.0000
    11 H(1)   Bbb    -0.0104    -5.573    -1.989    -1.859  0.8261  0.5635  0.0000
              Bcc     0.0225    11.998     4.281     4.002 -0.5635  0.8261 -0.0000
 

 ---------------------------------------------------------------------------------

 Calling FoFJK, ICntrl=      2127 FMM=F ISym2X=1 I1Cent= 0 IOpClX= 1 NMat=1 NMatS=1 NMatT=0.
 ***** Axes restored to original set *****
 -------------------------------------------------------------------
 Center     Atomic                   Forces (Hartrees/Bohr)
 Number     Number              X              Y              Z
 -------------------------------------------------------------------
      1        6           0.009674205    0.005136585    0.000000000
      2        6          -0.000400220   -0.033822429   -0.000000000
      3        6           0.003457224    0.002458653    0.000000000
      4        6          -0.000989562   -0.001484604   -0.000000000
      5        6           0.008249450    0.003297249    0.000000000
      6        6          -0.009961951   -0.006270453   -0.000000000
      7        1           0.009372154   -0.002782498    0.000000000
      8       17          -0.000089441    0.023492046    0.000000000
      9        1          -0.011086919   -0.004844679   -0.000000000
     10        1          -0.008369093    0.005502531   -0.000000000
     11        1           0.000144153    0.009317598    0.000000000
 -------------------------------------------------------------------
 Cartesian Forces:  Max     0.033822429 RMS     0.008675582

 GradGradGradGradGradGradGradGradGradGradGradGradGradGradGradGradGradGrad
 Berny optimization.
 FormGI is forming the generalized inverse of G from B-inverse, IUseBI=4.
 Internal  Forces:  Max     0.023488518 RMS     0.006016147
 Search for a local minimum.
 Step number   1 out of a maximum of   57
 All quantities printed in internal units (Hartrees-Bohrs-Radians)
 Mixed Optimization -- RFO/linear search
 Second derivative matrix not updated -- first step.
 ITU=  0
     Eigenvalues ---    0.01950   0.01987   0.02012   0.02036   0.02045
     Eigenvalues ---    0.02100   0.02158   0.02399   0.16000   0.16000
     Eigenvalues ---    0.16000   0.16000   0.22000   0.23270   0.23492
     Eigenvalues ---    0.25000   0.33614   0.33806   0.34049   0.34112
     Eigenvalues ---    0.36618   0.40739   0.42354   0.43868   0.44823
     Eigenvalues ---    0.49145   0.50473
 RFO step:  Lambda=-4.83827327D-03 EMin= 1.94958185D-02
 Linear search not attempted -- first point.
 Iteration  1 RMS(Cart)=  0.02142971 RMS(Int)=  0.00018895
 Iteration  2 RMS(Cart)=  0.00028717 RMS(Int)=  0.00004347
 Iteration  3 RMS(Cart)=  0.00000005 RMS(Int)=  0.00004347
 ClnCor:  largest displacement from symmetrization is 2.22D-09 for atom     9.
 Variable       Old X    -DE/DX   Delta X   Delta X   Delta X     New X
                                 (Linear)    (Quad)   (Total)
    R1        2.67065  -0.01125   0.00000  -0.02584  -0.02583   2.64483
    R2        2.58911  -0.00141   0.00000  -0.00227  -0.00221   2.58690
    R3        2.07248  -0.00963   0.00000  -0.02788  -0.02788   2.04460
    R4        2.65969  -0.01313   0.00000  -0.02999  -0.03004   2.62964
    R5        3.20127   0.02349   0.00000   0.06331   0.06331   3.26458
    R6        2.64800  -0.00995   0.00000  -0.02215  -0.02222   2.62579
    R7        2.07986  -0.01198   0.00000  -0.03513  -0.03513   2.04473
    R8        2.66192  -0.00826   0.00000  -0.01824  -0.01825   2.64367
    R9        2.07658  -0.00997   0.00000  -0.02907  -0.02907   2.04751
   R10        2.59090  -0.00176   0.00000  -0.00278  -0.00272   2.58818
   R11        2.07142  -0.00932   0.00000  -0.02693  -0.02693   2.04449
    A1        1.99581   0.00606   0.00000   0.02643   0.02650   2.02231
    A2        2.13798  -0.00479   0.00000  -0.02390  -0.02393   2.11405
    A3        2.14939  -0.00127   0.00000  -0.00253  -0.00257   2.14682
    A4        2.09968   0.00166   0.00000   0.00383   0.00377   2.10346
    A5        2.08966  -0.00017   0.00000   0.00067   0.00070   2.09036
    A6        2.09384  -0.00149   0.00000  -0.00450  -0.00447   2.08937
    A7        2.11044  -0.00137   0.00000  -0.00959  -0.00972   2.10073
    A8        2.08713  -0.00108   0.00000  -0.00592  -0.00586   2.08127
    A9        2.08561   0.00245   0.00000   0.01551   0.01558   2.10119
   A10        2.09785   0.00187   0.00000   0.00680   0.00672   2.10457
   A11        2.09230  -0.00195   0.00000  -0.00958  -0.00954   2.08275
   A12        2.09304   0.00009   0.00000   0.00278   0.00282   2.09586
   A13        2.00349   0.00399   0.00000   0.01877   0.01881   2.02230
   A14        2.13402  -0.00216   0.00000  -0.01040  -0.01042   2.12359
   A15        2.14568  -0.00183   0.00000  -0.00837  -0.00839   2.13730
   A16        2.25910  -0.01222   0.00000  -0.04625  -0.04609   2.21301
    D1       -0.00000   0.00000   0.00000  -0.00000   0.00000   0.00000
    D2        3.14159   0.00000   0.00000  -0.00000   0.00000   3.14159
    D3        3.14159   0.00000   0.00000   0.00000   0.00000   3.14159
    D4       -0.00000   0.00000   0.00000   0.00000   0.00000   0.00000
    D5        0.00000  -0.00000   0.00000  -0.00000  -0.00000   0.00000
    D6        3.14159  -0.00000   0.00000  -0.00000   0.00000   3.14159
    D7        0.00000  -0.00000   0.00000   0.00000   0.00000   0.00000
    D8        3.14159   0.00000   0.00000   0.00000   0.00000   3.14159
    D9        3.14159  -0.00000   0.00000   0.00000   0.00000   3.14159
   D10        0.00000   0.00000   0.00000   0.00000  -0.00000   0.00000
   D11       -0.00000  -0.00000   0.00000  -0.00000   0.00000   0.00000
   D12        3.14159   0.00000   0.00000   0.00000   0.00000   3.14159
   D13        3.14159  -0.00000   0.00000  -0.00000   0.00000   3.14159
   D14        0.00000   0.00000   0.00000   0.00000   0.00000   0.00000
   D15        0.00000  -0.00000   0.00000  -0.00000  -0.00000   0.00000
   D16        3.14159   0.00000   0.00000   0.00000   0.00000   3.14159
   D17        3.14159  -0.00000   0.00000  -0.00000   0.00000   3.14159
   D18        0.00000  -0.00000   0.00000  -0.00000  -0.00000   0.00000
   D19       -0.00000   0.00000   0.00000   0.00000   0.00000   0.00000
   D20        3.14159  -0.00000   0.00000  -0.00000   0.00000   3.14159
         Item               Value     Threshold  Converged?
 Maximum Force            0.023489     0.000450     NO 
 RMS     Force            0.006016     0.000300     NO 
 Maximum Displacement     0.081058     0.001800     NO 
 RMS     Displacement     0.021463     0.001200     NO 
 Predicted change in Energy=-2.453785D-03
 GradGradGradGradGradGradGradGradGradGradGradGradGradGradGradGradGradGrad

                          Input orientation:                          
 ---------------------------------------------------------------------
 Center     Atomic      Atomic             Coordinates (Angstroms)
 Number     Number       Type             X           Y           Z
 ---------------------------------------------------------------------
      1          6           0       -3.161915    0.171791   -0.000000
      2          6           0       -1.962628    0.893276    0.000000
      3          6           0       -0.739131    0.230358    0.000000
      4          6           0       -0.692749   -1.158374    0.000000
      5          6           0       -1.872683   -1.909956   -0.000000
      6          6           0       -3.038776   -1.191586   -0.000000
      7          1           0       -4.118616    0.677114   -0.000000
      8         17           0       -2.000687    2.620396    0.000000
      9          1           0        0.175440    0.808575    0.000000
     10          1           0        0.269021   -1.657334    0.000000
     11          1           0       -1.857145   -2.991740   -0.000000
 ---------------------------------------------------------------------
                    Distance matrix (angstroms):
                    1          2          3          4          5
     1  C    0.000000
     2  C    1.399582   0.000000
     3  C    2.423492   1.391548   0.000000
     4  C    2.804661   2.412854   1.389506   0.000000
     5  C    2.448630   2.804675   2.421959   1.398971   0.000000
     6  C    1.368927   2.346220   2.703755   2.346262   1.369608
     7  H    1.081955   2.166796   3.408886   3.886590   3.425951
     8  Cl   2.710003   1.727539   2.702556   3.998726   4.532160
     9  H    3.397563   2.139745   1.082024   2.150033   3.403707
    10  H    3.888062   3.389082   2.140036   1.083496   2.156552
    11  H    3.422039   3.886448   3.410553   2.171877   1.081896
                    6          7          8          9         10
     6  C    0.000000
     7  H    2.158262   0.000000
     8  Cl   3.950802   2.874363   0.000000
     9  H    3.785740   4.296067   2.831647   0.000000
    10  H    3.340426   4.970011   4.842577   2.467684   0.000000
    11  H    2.153324   4.309842   5.613971   4.309733   2.510223
                   11
    11  H    0.000000
 Stoichiometry    C6H4Cl(2)
 Framework group  CS[SG(C6H4Cl)]
 Deg. of freedom    19
 Full point group                 CS      NOp   2
 Largest Abelian subgroup         CS      NOp   2
 Largest concise Abelian subgroup C1      NOp   1
                         Standard orientation:                         
 ---------------------------------------------------------------------
 Center     Atomic      Atomic             Coordinates (Angstroms)
 Number     Number       Type             X           Y           Z
 ---------------------------------------------------------------------
      1          6           0       -1.281641   -0.079076   -0.000000
      2          6           0        0.000000    0.483265    0.000000
      3          6           0        1.128769   -0.330545    0.000000
      4          6           0        0.997335   -1.713821    0.000000
      5          6           0       -0.268958   -2.308484   -0.000000
      6          6           0       -1.333708   -1.447012   -0.000000
      7          1           0       -2.165935    0.544343   -0.000000
      8         17           0        0.182925    2.201092    0.000000
      9          1           0        2.109723    0.126080    0.000000
     10          1           0        1.887470   -2.331576    0.000000
     11          1           0       -0.391765   -3.383387   -0.000000
 ---------------------------------------------------------------------
 Rotational constants (GHZ):           6.1611509           1.5991126           1.2695927
 Standard basis: 6-311++G(d,p) (5D, 7F)
 There are   149 symmetry adapted cartesian basis functions of A'  symmetry.
 There are    48 symmetry adapted cartesian basis functions of A"  symmetry.
 There are   142 symmetry adapted basis functions of A'  symmetry.
 There are    48 symmetry adapted basis functions of A"  symmetry.
   190 basis functions,   305 primitive gaussians,   197 cartesian basis functions
    29 alpha electrons       28 beta electrons
       nuclear repulsion energy       305.8818801080 Hartrees.
 NAtoms=   11 NActive=   11 NUniq=   11 SFac= 1.00D+00 NAtFMM=   60 NAOKFM=F Big=F
 Integral buffers will be    131072 words long.
 Raffenetti 2 integral format.
 Two-electron integral symmetry is turned on.
 One-electron integrals computed using PRISM.
 NBasis=   190 RedAO= T EigKep=  1.86D-06  NBF=   142    48
 NBsUse=   190 1.00D-06 EigRej= -1.00D+00 NBFU=   142    48
 Initial guess from the checkpoint file:  "frequency_chks/_3ClBzNeutralRadical_Freq.chk"
 B after Tr=     0.000000    0.000000    0.000000
         Rot=    0.999997   -0.000000   -0.000000   -0.002448 Ang=  -0.28 deg.
 Initial guess orbital symmetries:
 Alpha Orbitals:
       Occupied  (A') (A') (A') (A') (A') (A') (A') (A') (A') (A")
                 (A') (A') (A') (A') (A') (A') (A') (A') (A') (A')
                 (A') (A") (A') (A') (A") (A') (A") (A') (A")
       Virtual   (A") (A') (A") (A') (A') (A') (A') (A") (A') (A')
                 (A") (A') (A") (A') (A') (A") (A') (A') (A") (A')
                 (A') (A') (A") (A") (A') (A') (A') (A') (A") (A')
                 (A') (A') (A') (A') (A') (A') (A') (A') (A') (A')
                 (A') (A') (A') (A') (A') (A') (A") (A') (A') (A")
                 (A') (A') (A') (A") (A') (A") (A') (A") (A") (A')
                 (A') (A") (A') (A') (A') (A') (A') (A') (A") (A')
                 (A') (A') (A') (A') (A") (A') (A') (A') (A') (A")
                 (A") (A') (A") (A") (A') (A') (A") (A') (A") (A')
                 (A') (A') (A') (A') (A") (A") (A") (A') (A') (A')
                 (A") (A') (A') (A') (A") (A') (A") (A') (A") (A')
                 (A') (A") (A') (A") (A') (A") (A") (A') (A') (A')
                 (A') (A') (A') (A') (A") (A') (A') (A') (A') (A')
                 (A') (A") (A") (A') (A") (A") (A') (A") (A') (A')
                 (A') (A') (A') (A') (A') (A') (A') (A') (A') (A')
                 (A') (A') (A') (A') (A') (A') (A') (A") (A') (A')
                 (A')
 Beta  Orbitals:
       Occupied  (A') (A') (A') (A') (A') (A') (A') (A') (A') (A")
                 (A') (A') (A') (A') (A') (A') (A') (A') (A') (A')
                 (A') (A") (A') (A') (A") (A') (A") (A")
       Virtual   (A') (A") (A') (A') (A") (A') (A') (A') (A") (A')
                 (A') (A") (A") (A') (A') (A') (A") (A') (A') (A')
                 (A") (A') (A') (A") (A") (A') (A') (A') (A') (A')
                 (A") (A') (A') (A') (A') (A') (A') (A') (A') (A')
                 (A') (A') (A') (A') (A') (A') (A') (A") (A') (A')
                 (A") (A') (A') (A') (A') (A") (A") (A') (A') (A")
                 (A") (A") (A') (A') (A') (A') (A') (A') (A") (A')
                 (A') (A') (A') (A') (A') (A") (A') (A') (A') (A')
                 (A") (A") (A') (A") (A") (A') (A') (A") (A') (A")
                 (A') (A') (A') (A') (A') (A") (A") (A") (A') (A')
                 (A') (A") (A') (A') (A') (A") (A') (A") (A') (A")
                 (A') (A') (A") (A') (A") (A') (A") (A") (A') (A')
                 (A') (A') (A') (A') (A') (A") (A') (A') (A') (A')
                 (A') (A') (A") (A") (A') (A") (A") (A') (A") (A')
                 (A') (A') (A') (A') (A') (A') (A') (A') (A') (A')
                 (A') (A') (A') (A') (A') (A') (A') (A') (A") (A')
                 (A') (A')
 Initial guess <Sx>= 0.0000 <Sy>= 0.0000 <Sz>= 0.5000 <S**2>= 0.7623 S= 0.5061
 ExpMin= 3.60D-02 ExpMax= 1.06D+05 ExpMxC= 3.62D+03 IAcc=3 IRadAn=         5 AccDes= 0.00D+00
 Harris functional with IExCor= 1009 and IRadAn=       5 diagonalized for initial guess.
 HarFok:  IExCor= 1009 AccDes= 0.00D+00 IRadAn=         5 IDoV= 1 UseB2=F ITyADJ=14
 ICtDFT=  3500011 ScaDFX=  1.000000  1.000000  1.000000  1.000000
 FoFCou: FMM=F IPFlag=           0 FMFlag=      100000 FMFlg1=           0
         NFxFlg=           0 DoJE=T BraDBF=F KetDBF=T FulRan=T
         wScrn=  0.000000 ICntrl=       500 IOpCl=  0 I1Cent=   200000004 NGrid=           0
         NMat0=    1 NMatS0=      1 NMatT0=    0 NMatD0=    1 NMtDS0=    0 NMtDT0=    0
 Petite list used in FoFCou.
 Keep R1 and R2 ints in memory in symmetry-blocked form, NReq=262273818.
 Requested convergence on RMS density matrix=1.00D-08 within 128 cycles.
 Requested convergence on MAX density matrix=1.00D-06.
 Requested convergence on             energy=1.00D-06.
 No special actions if energy rises.
 SCF Done:  E(UM062X) =  -691.113359020     A.U. after   16 cycles
            NFock= 16  Conv=0.55D-08     -V/T= 2.0027
 <Sx>= 0.0000 <Sy>= 0.0000 <Sz>= 0.5000 <S**2>= 0.7621 S= 0.5060
 <L.S>=  0.00000000000    
 Annihilation of the first spin contaminant:
 S**2 before annihilation     0.7621,   after     0.7501
 Calling FoFJK, ICntrl=      2127 FMM=F ISym2X=1 I1Cent= 0 IOpClX= 1 NMat=1 NMatS=1 NMatT=0.
 ***** Axes restored to original set *****
 -------------------------------------------------------------------
 Center     Atomic                   Forces (Hartrees/Bohr)
 Number     Number              X              Y              Z
 -------------------------------------------------------------------
      1        6           0.002416222    0.004047030    0.000000000
      2        6          -0.002132003   -0.010853807   -0.000000000
      3        6           0.001940198    0.003075238    0.000000000
      4        6          -0.001313004   -0.002123299   -0.000000000
      5        6           0.003043779    0.001633193    0.000000000
      6        6          -0.003697504   -0.002157170   -0.000000000
      7        1          -0.000504581    0.000702764   -0.000000000
      8       17          -0.000417844    0.006352165    0.000000000
      9        1           0.000249653    0.000252509    0.000000000
     10        1           0.000149733   -0.000313548    0.000000000
     11        1           0.000265350   -0.000615073    0.000000000
 -------------------------------------------------------------------
 Cartesian Forces:  Max     0.010853807 RMS     0.002675628

 GradGradGradGradGradGradGradGradGradGradGradGradGradGradGradGradGradGrad
 Berny optimization.
 Using GEDIIS/GDIIS optimizer.
 FormGI is forming the generalized inverse of G from B-inverse, IUseBI=4.
 Internal  Forces:  Max     0.006359391 RMS     0.001353826
 Search for a local minimum.
 Step number   2 out of a maximum of   57
 All quantities printed in internal units (Hartrees-Bohrs-Radians)
 Mixed Optimization -- RFO/linear search
 Update second derivatives using D2CorX and points    1    2
 DE= -2.71D-03 DEPred=-2.45D-03 R= 1.10D+00
 TightC=F SS=  1.41D+00  RLast= 1.20D-01 DXNew= 5.0454D-01 3.6109D-01
 Trust test= 1.10D+00 RLast= 1.20D-01 DXMaxT set to 3.61D-01
 ITU=  1  0
 Use linear search instead of GDIIS.
     Eigenvalues ---    0.01950   0.01986   0.02012   0.02036   0.02044
     Eigenvalues ---    0.02104   0.02160   0.02392   0.15892   0.16000
     Eigenvalues ---    0.16000   0.16040   0.20708   0.22026   0.23988
     Eigenvalues ---    0.25036   0.32117   0.33704   0.33930   0.34084
     Eigenvalues ---    0.36039   0.40483   0.43011   0.43515   0.44829
     Eigenvalues ---    0.50430   0.51792
 RFO step:  Lambda=-2.44237466D-04 EMin= 1.94951148D-02
 Quartic linear search produced a step of  0.13222.
 Iteration  1 RMS(Cart)=  0.00509575 RMS(Int)=  0.00002127
 Iteration  2 RMS(Cart)=  0.00003169 RMS(Int)=  0.00000719
 Iteration  3 RMS(Cart)=  0.00000000 RMS(Int)=  0.00000719
 ClnCor:  largest displacement from symmetrization is 1.33D-12 for atom     9.
 Variable       Old X    -DE/DX   Delta X   Delta X   Delta X     New X
                                 (Linear)    (Quad)   (Total)
    R1        2.64483  -0.00246  -0.00341  -0.00434  -0.00775   2.63708
    R2        2.58690   0.00212  -0.00029   0.00493   0.00465   2.59155
    R3        2.04460   0.00077  -0.00369   0.00493   0.00125   2.04585
    R4        2.62964   0.00016  -0.00397   0.00278  -0.00119   2.62845
    R5        3.26458   0.00636   0.00837   0.01430   0.02267   3.28724
    R6        2.62579   0.00136  -0.00294   0.00522   0.00227   2.62806
    R7        2.04473   0.00035  -0.00465   0.00414  -0.00050   2.04423
    R8        2.64367  -0.00072  -0.00241  -0.00022  -0.00264   2.64103
    R9        2.04751   0.00028  -0.00384   0.00339  -0.00045   2.04706
   R10        2.58818   0.00266  -0.00036   0.00629   0.00593   2.59412
   R11        2.04449   0.00062  -0.00356   0.00434   0.00077   2.04526
    A1        2.02231   0.00001   0.00350  -0.00236   0.00116   2.02347
    A2        2.11405  -0.00039  -0.00316  -0.00063  -0.00380   2.11026
    A3        2.14682   0.00038  -0.00034   0.00299   0.00264   2.14946
    A4        2.10346   0.00263   0.00050   0.01114   0.01163   2.11509
    A5        2.09036  -0.00178   0.00009  -0.00789  -0.00779   2.08256
    A6        2.08937  -0.00085  -0.00059  -0.00325  -0.00384   2.08553
    A7        2.10073  -0.00175  -0.00128  -0.00852  -0.00982   2.09091
    A8        2.08127   0.00079  -0.00077   0.00459   0.00383   2.08510
    A9        2.10119   0.00096   0.00206   0.00393   0.00599   2.10718
   A10        2.10457   0.00009   0.00089   0.00001   0.00088   2.10545
   A11        2.08275   0.00017  -0.00126   0.00202   0.00077   2.08352
   A12        2.09586  -0.00025   0.00037  -0.00203  -0.00164   2.09422
   A13        2.02230   0.00140   0.00249   0.00605   0.00854   2.03083
   A14        2.12359  -0.00097  -0.00138  -0.00483  -0.00621   2.11739
   A15        2.13730  -0.00043  -0.00111  -0.00122  -0.00233   2.13496
   A16        2.21301  -0.00237  -0.00609  -0.00632  -0.01239   2.20062
    D1       -0.00000  -0.00000   0.00000  -0.00000   0.00000   0.00000
    D2        3.14159  -0.00000   0.00000  -0.00000   0.00000   3.14159
    D3        3.14159  -0.00000   0.00000  -0.00000   0.00000   3.14159
    D4        0.00000  -0.00000   0.00000  -0.00000   0.00000   0.00000
    D5        0.00000   0.00000   0.00000   0.00000   0.00000   0.00000
    D6        3.14159  -0.00000   0.00000   0.00000   0.00000   3.14159
    D7       -0.00000   0.00000   0.00000   0.00000   0.00000   0.00000
    D8        3.14159   0.00000   0.00000  -0.00000   0.00000   3.14159
    D9        3.14159   0.00000   0.00000   0.00000   0.00000   3.14159
   D10        0.00000   0.00000   0.00000  -0.00000  -0.00000   0.00000
   D11        0.00000   0.00000   0.00000  -0.00000   0.00000   0.00000
   D12        3.14159  -0.00000   0.00000  -0.00000   0.00000   3.14159
   D13        3.14159   0.00000   0.00000   0.00000   0.00000   3.14159
   D14        0.00000  -0.00000   0.00000  -0.00000  -0.00000   0.00000
   D15       -0.00000  -0.00000   0.00000   0.00000   0.00000   0.00000
   D16        3.14159  -0.00000   0.00000  -0.00000   0.00000   3.14159
   D17        3.14159   0.00000   0.00000   0.00000   0.00000   3.14159
   D18        0.00000  -0.00000   0.00000   0.00000   0.00000   0.00000
   D19       -0.00000  -0.00000   0.00000  -0.00000   0.00000   0.00000
   D20        3.14159   0.00000   0.00000   0.00000   0.00000   3.14159
         Item               Value     Threshold  Converged?
 Maximum Force            0.006359     0.000450     NO 
 RMS     Force            0.001354     0.000300     NO 
 Maximum Displacement     0.016038     0.001800     NO 
 RMS     Displacement     0.005099     0.001200     NO 
 Predicted change in Energy=-1.606155D-04
 GradGradGradGradGradGradGradGradGradGradGradGradGradGradGradGradGradGrad

                          Input orientation:                          
 ---------------------------------------------------------------------
 Center     Atomic      Atomic             Coordinates (Angstroms)
 Number     Number       Type             X           Y           Z
 ---------------------------------------------------------------------
      1          6           0       -3.161718    0.170894   -0.000000
      2          6           0       -1.962666    0.884789    0.000000
      3          6           0       -0.735077    0.230823    0.000000
      4          6           0       -0.692491   -1.159234    0.000000
      5          6           0       -1.872660   -1.907843   -0.000000
      6          6           0       -3.046190   -1.195618   -0.000000
      7          1           0       -4.114736    0.684522   -0.000000
      8         17           0       -2.006590    2.623769    0.000000
      9          1           0        0.177395    0.811852    0.000000
     10          1           0        0.267302   -1.661474    0.000000
     11          1           0       -1.852439   -2.989960   -0.000000
 ---------------------------------------------------------------------
                    Distance matrix (angstroms):
                    1          2          3          4          5
     1  C    0.000000
     2  C    1.395483   0.000000
     3  C    2.427381   1.390916   0.000000
     4  C    2.804696   2.406528   1.390709   0.000000
     5  C    2.445979   2.794082   2.422393   1.397574   0.000000
     6  C    1.371387   2.345660   2.715875   2.353980   1.372747
     7  H    1.082616   2.161368   3.409976   3.887312   3.427427
     8  Cl   2.711258   1.739535   2.709786   4.004744   4.533591
     9  H    3.400074   2.141304   1.081758   2.154503   3.405799
    10  H    3.887898   3.384703   2.141390   1.083258   2.154098
    11  H    3.421287   3.876316   3.409096   2.167264   1.082306
                    6          7          8          9         10
     6  C    0.000000
     7  H    2.162572   0.000000
     8  Cl   3.958344   2.864430   0.000000
     9  H    3.797557   4.294019   2.837752   0.000000
    10  H    3.346080   4.970508   4.851175   2.474960   0.000000
    11  H    2.155157   4.315066   5.615845   4.309756   2.501635
                   11
    11  H    0.000000
 Stoichiometry    C6H4Cl(2)
 Framework group  CS[SG(C6H4Cl)]
 Deg. of freedom    19
 Full point group                 CS      NOp   2
 Largest Abelian subgroup         CS      NOp   2
 Largest concise Abelian subgroup C1      NOp   1
                         Standard orientation:                         
 ---------------------------------------------------------------------
 Center     Atomic      Atomic             Coordinates (Angstroms)
 Number     Number       Type             X           Y           Z
 ---------------------------------------------------------------------
      1          6           0       -1.279518   -0.082274   -0.000000
      2          6           0        0.000000    0.474688    0.000000
      3          6           0        1.135303   -0.328889    0.000000
      4          6           0        1.002225   -1.713216    0.000000
      5          6           0       -0.262940   -2.306995   -0.000000
      6          6           0       -1.337267   -1.452444   -0.000000
      7          1           0       -2.160142    0.547454   -0.000000
      8         17           0        0.175759    2.205320    0.000000
      9          1           0        2.113772    0.132413    0.000000
     10          1           0        1.891007   -2.332501    0.000000
     11          1           0       -0.379364   -3.383021   -0.000000
 ---------------------------------------------------------------------
 Rotational constants (GHZ):           6.1384509           1.5963733           1.2669013
 Standard basis: 6-311++G(d,p) (5D, 7F)
 There are   149 symmetry adapted cartesian basis functions of A'  symmetry.
 There are    48 symmetry adapted cartesian basis functions of A"  symmetry.
 There are   142 symmetry adapted basis functions of A'  symmetry.
 There are    48 symmetry adapted basis functions of A"  symmetry.
   190 basis functions,   305 primitive gaussians,   197 cartesian basis functions
    29 alpha electrons       28 beta electrons
       nuclear repulsion energy       305.5252533466 Hartrees.
 NAtoms=   11 NActive=   11 NUniq=   11 SFac= 1.00D+00 NAtFMM=   60 NAOKFM=F Big=F
 Integral buffers will be    131072 words long.
 Raffenetti 2 integral format.
 Two-electron integral symmetry is turned on.
 One-electron integrals computed using PRISM.
 NBasis=   190 RedAO= T EigKep=  1.87D-06  NBF=   142    48
 NBsUse=   190 1.00D-06 EigRej= -1.00D+00 NBFU=   142    48
 Initial guess from the checkpoint file:  "frequency_chks/_3ClBzNeutralRadical_Freq.chk"
 B after Tr=     0.000000    0.000000   -0.000000
         Rot=    0.999999   -0.000000   -0.000000   -0.001249 Ang=  -0.14 deg.
 Initial guess orbital symmetries:
 Alpha Orbitals:
       Occupied  (A') (A') (A') (A') (A') (A') (A') (A') (A') (A")
                 (A') (A') (A') (A') (A') (A') (A') (A') (A') (A')
                 (A') (A") (A') (A') (A") (A') (A") (A') (A")
       Virtual   (A') (A") (A") (A') (A') (A') (A') (A") (A') (A')
                 (A") (A') (A") (A') (A') (A") (A') (A') (A") (A')
                 (A') (A') (A") (A') (A") (A') (A') (A') (A') (A")
                 (A') (A') (A') (A') (A') (A') (A') (A') (A') (A')
                 (A') (A') (A') (A') (A') (A") (A') (A') (A') (A")
                 (A') (A') (A') (A") (A") (A') (A') (A") (A") (A')
                 (A') (A") (A') (A') (A') (A') (A') (A') (A") (A')
                 (A') (A') (A') (A') (A") (A') (A') (A') (A') (A")
                 (A") (A') (A") (A") (A') (A') (A") (A') (A") (A')
                 (A') (A') (A') (A') (A") (A") (A") (A') (A') (A')
                 (A") (A') (A') (A') (A") (A") (A') (A') (A") (A')
                 (A') (A") (A') (A") (A') (A") (A") (A') (A') (A')
                 (A') (A') (A') (A') (A") (A') (A') (A') (A') (A')
                 (A') (A") (A") (A') (A") (A") (A') (A") (A') (A')
                 (A') (A') (A') (A') (A') (A') (A') (A') (A') (A')
                 (A') (A') (A') (A') (A') (A') (A') (A") (A') (A')
                 (A')
 Beta  Orbitals:
       Occupied  (A') (A') (A') (A') (A') (A') (A') (A') (A') (A")
                 (A') (A') (A') (A') (A') (A') (A') (A') (A') (A')
                 (A') (A") (A') (A') (A") (A') (A") (A")
       Virtual   (A') (A") (A') (A") (A') (A') (A') (A') (A") (A')
                 (A') (A") (A") (A') (A') (A') (A") (A') (A') (A')
                 (A") (A') (A') (A") (A') (A") (A') (A') (A') (A')
                 (A') (A") (A') (A') (A') (A') (A') (A') (A') (A')
                 (A') (A') (A') (A') (A') (A') (A") (A') (A') (A')
                 (A") (A') (A') (A') (A') (A") (A") (A') (A") (A')
                 (A") (A") (A') (A') (A') (A') (A') (A') (A') (A')
                 (A") (A') (A') (A') (A') (A") (A') (A') (A') (A')
                 (A") (A") (A') (A") (A") (A') (A') (A") (A') (A")
                 (A') (A') (A') (A') (A') (A") (A") (A") (A') (A')
                 (A') (A") (A') (A') (A') (A") (A') (A") (A') (A")
                 (A') (A') (A") (A') (A") (A') (A") (A") (A') (A')
                 (A') (A') (A') (A') (A') (A") (A') (A') (A') (A')
                 (A') (A') (A") (A") (A') (A") (A") (A') (A") (A')
                 (A') (A') (A') (A') (A') (A') (A') (A') (A') (A')
                 (A') (A') (A') (A') (A') (A') (A') (A') (A") (A')
                 (A') (A')
 Initial guess <Sx>= 0.0000 <Sy>= 0.0000 <Sz>= 0.5000 <S**2>= 0.7621 S= 0.5061
 Keep R1 and R2 ints in memory in symmetry-blocked form, NReq=262273818.
 Requested convergence on RMS density matrix=1.00D-08 within 128 cycles.
 Requested convergence on MAX density matrix=1.00D-06.
 Requested convergence on             energy=1.00D-06.
 No special actions if energy rises.
 SCF Done:  E(UM062X) =  -691.113551067     A.U. after   14 cycles
            NFock= 14  Conv=0.89D-08     -V/T= 2.0027
 <Sx>= 0.0000 <Sy>= 0.0000 <Sz>= 0.5000 <S**2>= 0.7622 S= 0.5061
 <L.S>=  0.00000000000    
 Annihilation of the first spin contaminant:
 S**2 before annihilation     0.7622,   after     0.7501
 Calling FoFJK, ICntrl=      2127 FMM=F ISym2X=1 I1Cent= 0 IOpClX= 1 NMat=1 NMatS=1 NMatT=0.
 ***** Axes restored to original set *****
 -------------------------------------------------------------------
 Center     Atomic                   Forces (Hartrees/Bohr)
 Number     Number              X              Y              Z
 -------------------------------------------------------------------
      1        6          -0.000469755    0.001149790   -0.000000000
      2        6           0.000035520   -0.002986088   -0.000000000
      3        6           0.000326674    0.001232594    0.000000000
      4        6          -0.000546774   -0.000384218   -0.000000000
      5        6           0.000145346    0.000563410    0.000000000
      6        6           0.000226978   -0.000567489    0.000000000
      7        1          -0.000219538    0.000132579   -0.000000000
      8       17          -0.000061743    0.001510387    0.000000000
      9        1           0.000277142    0.000161154    0.000000000
     10        1           0.000282936   -0.000380523    0.000000000
     11        1           0.000003213   -0.000431594   -0.000000000
 -------------------------------------------------------------------
 Cartesian Forces:  Max     0.002986088 RMS     0.000698703

 GradGradGradGradGradGradGradGradGradGradGradGradGradGradGradGradGradGrad
 Berny optimization.
 Using GEDIIS/GDIIS optimizer.
 FormGI is forming the generalized inverse of G from B-inverse, IUseBI=4.
 Internal  Forces:  Max     0.001510850 RMS     0.000352029
 Search for a local minimum.
 Step number   3 out of a maximum of   57
 All quantities printed in internal units (Hartrees-Bohrs-Radians)
 Mixed Optimization -- En-DIIS/RFO-DIIS
 Update second derivatives using D2CorX and points    1    2    3
 DE= -1.92D-04 DEPred=-1.61D-04 R= 1.20D+00
 TightC=F SS=  1.41D+00  RLast= 3.61D-02 DXNew= 6.0727D-01 1.0824D-01
 Trust test= 1.20D+00 RLast= 3.61D-02 DXMaxT set to 3.61D-01
 ITU=  1  1  0
 Use linear search instead of GDIIS.
     Eigenvalues ---    0.01950   0.01986   0.02012   0.02036   0.02044
     Eigenvalues ---    0.02106   0.02161   0.02390   0.15526   0.16000
     Eigenvalues ---    0.16019   0.16072   0.17788   0.22018   0.24282
     Eigenvalues ---    0.25025   0.30776   0.33704   0.33932   0.34107
     Eigenvalues ---    0.36097   0.40585   0.43179   0.43927   0.45054
     Eigenvalues ---    0.50509   0.51286
 RFO step:  Lambda=-9.79563990D-06 EMin= 1.94960490D-02
 Quartic linear search produced a step of  0.26901.
 Iteration  1 RMS(Cart)=  0.00158767 RMS(Int)=  0.00000237
 Iteration  2 RMS(Cart)=  0.00000312 RMS(Int)=  0.00000113
 Iteration  3 RMS(Cart)=  0.00000000 RMS(Int)=  0.00000113
 ClnCor:  largest displacement from symmetrization is 4.13D-10 for atom     9.
 Variable       Old X    -DE/DX   Delta X   Delta X   Delta X     New X
                                 (Linear)    (Quad)   (Total)
    R1        2.63708  -0.00011  -0.00208   0.00102  -0.00106   2.63602
    R2        2.59155   0.00054   0.00125   0.00025   0.00150   2.59304
    R3        2.04585   0.00026   0.00034   0.00019   0.00052   2.04637
    R4        2.62845  -0.00002  -0.00032  -0.00026  -0.00058   2.62787
    R5        3.28724   0.00151   0.00610   0.00117   0.00727   3.29452
    R6        2.62806   0.00068   0.00061   0.00097   0.00158   2.62964
    R7        2.04423   0.00032  -0.00013   0.00071   0.00057   2.04480
    R8        2.64103  -0.00006  -0.00071   0.00008  -0.00063   2.64040
    R9        2.04706   0.00043  -0.00012   0.00119   0.00107   2.04813
   R10        2.59412   0.00009   0.00160  -0.00119   0.00040   2.59452
   R11        2.04526   0.00043   0.00021   0.00095   0.00116   2.04642
    A1        2.02347  -0.00054   0.00031  -0.00272  -0.00241   2.02107
    A2        2.11026   0.00026  -0.00102   0.00185   0.00082   2.11108
    A3        2.14946   0.00027   0.00071   0.00087   0.00158   2.15104
    A4        2.11509   0.00087   0.00313   0.00203   0.00516   2.12025
    A5        2.08256  -0.00049  -0.00210  -0.00080  -0.00290   2.07966
    A6        2.08553  -0.00038  -0.00103  -0.00123  -0.00226   2.08327
    A7        2.09091  -0.00058  -0.00264  -0.00110  -0.00375   2.08716
    A8        2.08510   0.00030   0.00103   0.00066   0.00169   2.08679
    A9        2.10718   0.00028   0.00161   0.00044   0.00206   2.10924
   A10        2.10545   0.00001   0.00024   0.00001   0.00024   2.10568
   A11        2.08352   0.00020   0.00021   0.00122   0.00143   2.08495
   A12        2.09422  -0.00021  -0.00044  -0.00123  -0.00167   2.09255
   A13        2.03083   0.00022   0.00230  -0.00032   0.00198   2.03281
   A14        2.11739  -0.00012  -0.00167   0.00054  -0.00113   2.11626
   A15        2.13496  -0.00011  -0.00063  -0.00022  -0.00085   2.13412
   A16        2.20062   0.00002  -0.00333   0.00211  -0.00122   2.19940
    D1       -0.00000   0.00000   0.00000   0.00000   0.00000   0.00000
    D2        3.14159   0.00000   0.00000   0.00000   0.00000   3.14159
    D3        3.14159   0.00000   0.00000   0.00000   0.00000   3.14159
    D4        0.00000   0.00000   0.00000   0.00000  -0.00000   0.00000
    D5        0.00000  -0.00000   0.00000  -0.00000  -0.00000   0.00000
    D6        3.14159  -0.00000   0.00000  -0.00000   0.00000   3.14159
    D7        0.00000  -0.00000   0.00000  -0.00000  -0.00000   0.00000
    D8        3.14159  -0.00000   0.00000  -0.00000   0.00000   3.14159
    D9        3.14159   0.00000   0.00000   0.00000   0.00000   3.14159
   D10       -0.00000   0.00000   0.00000   0.00000   0.00000   0.00000
   D11        0.00000  -0.00000   0.00000  -0.00000   0.00000   0.00000
   D12        3.14159  -0.00000   0.00000   0.00000   0.00000   3.14159
   D13        3.14159  -0.00000   0.00000  -0.00000   0.00000   3.14159
   D14        0.00000   0.00000   0.00000   0.00000   0.00000   0.00000
   D15       -0.00000   0.00000   0.00000   0.00000   0.00000   0.00000
   D16        3.14159   0.00000   0.00000   0.00000   0.00000   3.14159
   D17        3.14159  -0.00000   0.00000  -0.00000   0.00000   3.14159
   D18        0.00000   0.00000   0.00000  -0.00000  -0.00000   0.00000
   D19       -0.00000   0.00000   0.00000   0.00000   0.00000   0.00000
   D20        3.14159   0.00000   0.00000  -0.00000   0.00000   3.14159
         Item               Value     Threshold  Converged?
 Maximum Force            0.001511     0.000450     NO 
 RMS     Force            0.000352     0.000300     NO 
 Maximum Displacement     0.005531     0.001800     NO 
 RMS     Displacement     0.001587     0.001200     NO 
 Predicted change in Energy=-1.347910D-05
 GradGradGradGradGradGradGradGradGradGradGradGradGradGradGradGradGradGrad

                          Input orientation:                          
 ---------------------------------------------------------------------
 Center     Atomic      Atomic             Coordinates (Angstroms)
 Number     Number       Type             X           Y           Z
 ---------------------------------------------------------------------
      1          6           0       -3.162867    0.171009   -0.000000
      2          6           0       -1.962664    0.881863    0.000000
      3          6           0       -0.733477    0.231557    0.000000
      4          6           0       -0.692091   -1.159374    0.000000
      5          6           0       -1.872458   -1.907047   -0.000000
      6          6           0       -3.047121   -1.196280   -0.000000
      7          1           0       -4.115370    0.686170   -0.000000
      8         17           0       -2.007732    2.624663    0.000000
      9          1           0        0.178568    0.813820    0.000000
     10          1           0        0.267039   -1.664094    0.000000
     11          1           0       -1.851698   -2.989768   -0.000000
 ---------------------------------------------------------------------
                    Distance matrix (angstroms):
                    1          2          3          4          5
     1  C    0.000000
     2  C    1.394920   0.000000
     3  C    2.430145   1.390611   0.000000
     4  C    2.806181   2.404372   1.391547   0.000000
     5  C    2.446113   2.790368   2.422995   1.397241   0.000000
     6  C    1.372179   2.344083   2.718762   2.355319   1.372960
     7  H    1.082891   2.161583   3.412312   3.889071   3.428618
     8  Cl   2.711966   1.743383   2.711214   4.006227   4.533728
     9  H    3.402704   2.142312   1.082061   2.156744   3.407319
    10  H    3.889968   3.384297   2.143484   1.083823   2.153248
    11  H    3.421940   3.873220   3.409890   2.166801   1.082920
                    6          7          8          9         10
     6  C    0.000000
     7  H    2.164434   0.000000
     8  Cl   3.959790   2.863545   0.000000
     9  H    3.800733   4.295835   2.838848   0.000000
    10  H    3.347014   4.972851   4.854690   2.479493   0.000000
    11  H    2.155373   4.317028   5.616599   4.311526   2.499291
                   11
    11  H    0.000000
 Stoichiometry    C6H4Cl(2)
 Framework group  CS[SG(C6H4Cl)]
 Deg. of freedom    19
 Full point group                 CS      NOp   2
 Largest Abelian subgroup         CS      NOp   2
 Largest concise Abelian subgroup C1      NOp   1
                         Standard orientation:                         
 ---------------------------------------------------------------------
 Center     Atomic      Atomic             Coordinates (Angstroms)
 Number     Number       Type             X           Y           Z
 ---------------------------------------------------------------------
      1          6           0       -1.280356   -0.081937    0.000000
      2          6           0        0.000000    0.471677    0.000000
      3          6           0        1.137234   -0.328633   -0.000000
      4          6           0        1.002655   -1.713657   -0.000000
      5          6           0       -0.262673   -2.306299    0.000000
      6          6           0       -1.338185   -1.452897    0.000000
      7          1           0       -2.160186    0.549374    0.000000
      8         17           0        0.175356    2.206219   -0.000000
      9          1           0        2.115501    0.133806   -0.000000
[...]
      7        1           0.000013094   -0.000014762    0.000000000
      8       17           0.000009581    0.000143847    0.000000000
      9        1           0.000020112   -0.000004076    0.000000000
     10        1           0.000015658   -0.000062826    0.000000000
     11        1          -0.000026133   -0.000031572   -0.000000000
 -------------------------------------------------------------------
 Cartesian Forces:  Max     0.000399545 RMS     0.000128656
 FormGI is forming the generalized inverse of G from B-inverse, IUseBI=4.

 GradGradGradGradGradGradGradGradGradGradGradGradGradGradGradGradGradGrad
 Berny optimization.
 Internal  Forces:  Max     0.000224578 RMS     0.000067663
 Search for a local minimum.
 Step number   1 out of a maximum of    2
 All quantities printed in internal units (Hartrees-Bohrs-Radians)
 Second derivative matrix not updated -- analytic derivatives used.
 ITU=  0
     Eigenvalues ---    0.01782   0.01805   0.01989   0.02426   0.02670
     Eigenvalues ---    0.02892   0.03201   0.03426   0.10467   0.10821
     Eigenvalues ---    0.11323   0.12037   0.16147   0.18117   0.18590
     Eigenvalues ---    0.19836   0.26808   0.27631   0.36293   0.36448
     Eigenvalues ---    0.36573   0.36904   0.42427   0.42949   0.47470
     Eigenvalues ---    0.49112   0.52655
 Angle between quadratic step and forces=  14.46 degrees.
 Linear search not attempted -- first point.
 Iteration  1 RMS(Cart)=  0.00037706 RMS(Int)=  0.00000014
 Iteration  2 RMS(Cart)=  0.00000019 RMS(Int)=  0.00000004
 ClnCor:  largest displacement from symmetrization is 1.01D-10 for atom     9.
 Variable       Old X    -DE/DX   Delta X   Delta X   Delta X     New X
                                 (Linear)    (Quad)   (Total)
    R1        2.63602   0.00010   0.00000   0.00024   0.00024   2.63625
    R2        2.59304  -0.00001   0.00000  -0.00002  -0.00002   2.59302
    R3        2.04637  -0.00002   0.00000  -0.00013  -0.00013   2.04624
    R4        2.62787  -0.00002   0.00000  -0.00015  -0.00015   2.62772
    R5        3.29452   0.00014   0.00000   0.00086   0.00086   3.29538
    R6        2.62964   0.00007   0.00000   0.00016   0.00016   2.62980
    R7        2.04480   0.00001   0.00000   0.00002   0.00002   2.04482
    R8        2.64040   0.00008   0.00000   0.00026   0.00026   2.64066
    R9        2.04813   0.00004   0.00000   0.00011   0.00011   2.04824
   R10        2.59452  -0.00011   0.00000  -0.00035  -0.00035   2.59416
   R11        2.04642   0.00003   0.00000   0.00008   0.00008   2.04650
    A1        2.02107  -0.00022   0.00000  -0.00134  -0.00134   2.01973
    A2        2.11108   0.00013   0.00000   0.00074   0.00074   2.11182
    A3        2.15104   0.00010   0.00000   0.00059   0.00059   2.15163
    A4        2.12025   0.00011   0.00000   0.00079   0.00079   2.12104
    A5        2.07966  -0.00005   0.00000  -0.00032  -0.00032   2.07934
    A6        2.08327  -0.00006   0.00000  -0.00047  -0.00047   2.08280
    A7        2.08716  -0.00001   0.00000  -0.00003  -0.00003   2.08713
    A8        2.08679   0.00001   0.00000   0.00002   0.00002   2.08680
    A9        2.10924  -0.00000   0.00000   0.00002   0.00002   2.10926
   A10        2.10568  -0.00006   0.00000  -0.00035  -0.00035   2.10533
   A11        2.08495   0.00007   0.00000   0.00049   0.00049   2.08544
   A12        2.09255  -0.00001   0.00000  -0.00014  -0.00014   2.09241
   A13        2.03281  -0.00005   0.00000  -0.00023  -0.00023   2.03258
   A14        2.11626   0.00004   0.00000   0.00032   0.00032   2.11658
   A15        2.13412   0.00001   0.00000  -0.00009  -0.00009   2.13402
   A16        2.19940   0.00022   0.00000   0.00116   0.00116   2.20056
    D1       -0.00000  -0.00000   0.00000  -0.00000   0.00000   0.00000
    D2        3.14159  -0.00000   0.00000  -0.00000   0.00000   3.14159
    D3        3.14159  -0.00000   0.00000   0.00000   0.00000   3.14159
    D4        0.00000   0.00000   0.00000  -0.00000  -0.00000   0.00000
    D5        0.00000   0.00000   0.00000   0.00000  -0.00000   0.00000
    D6        3.14159   0.00000   0.00000   0.00000   0.00000   3.14159
    D7        0.00000   0.00000   0.00000  -0.00000   0.00000   0.00000
    D8        3.14159  -0.00000   0.00000  -0.00000   0.00000   3.14159
    D9        3.14159  -0.00000   0.00000   0.00000   0.00000   3.14159
   D10       -0.00000  -0.00000   0.00000   0.00000   0.00000   0.00000
   D11       -0.00000   0.00000   0.00000   0.00000   0.00000   0.00000
   D12        3.14159  -0.00000   0.00000   0.00000   0.00000   3.14159
   D13        3.14159   0.00000   0.00000   0.00000   0.00000   3.14159
   D14        0.00000  -0.00000   0.00000   0.00000   0.00000   0.00000
   D15        0.00000  -0.00000   0.00000   0.00000  -0.00000   0.00000
   D16        3.14159  -0.00000   0.00000   0.00000   0.00000   3.14159
   D17        3.14159  -0.00000   0.00000   0.00000   0.00000   3.14159
   D18       -0.00000  -0.00000   0.00000   0.00000   0.00000   0.00000
   D19       -0.00000   0.00000   0.00000  -0.00000   0.00000   0.00000
   D20        3.14159   0.00000   0.00000  -0.00000   0.00000   3.14159
         Item               Value     Threshold  Converged?
 Maximum Force            0.000225     0.000450     YES
 RMS     Force            0.000068     0.000300     YES
 Maximum Displacement     0.001140     0.001800     YES
 RMS     Displacement     0.000377     0.001200     YES
 Predicted change in Energy=-5.776724D-07
 Optimization completed.
    -- Stationary point found.
                           ----------------------------
                           !   Optimized Parameters   !
                           ! (Angstroms and Degrees)  !
 --------------------------                            --------------------------
 ! Name  Definition              Value          Derivative Info.                !
 --------------------------------------------------------------------------------
 ! R1    R(1,2)                  1.3949         -DE/DX =    0.0001              !
 ! R2    R(1,6)                  1.3722         -DE/DX =    0.0                 !
 ! R3    R(1,7)                  1.0829         -DE/DX =    0.0                 !
 ! R4    R(2,3)                  1.3906         -DE/DX =    0.0                 !
 ! R5    R(2,8)                  1.7434         -DE/DX =    0.0001              !
 ! R6    R(3,4)                  1.3915         -DE/DX =    0.0001              !
 ! R7    R(3,9)                  1.0821         -DE/DX =    0.0                 !
 ! R8    R(4,5)                  1.3972         -DE/DX =    0.0001              !
 ! R9    R(4,10)                 1.0838         -DE/DX =    0.0                 !
 ! R10   R(5,6)                  1.373          -DE/DX =   -0.0001              !
 ! R11   R(5,11)                 1.0829         -DE/DX =    0.0                 !
 ! A1    A(2,1,6)              115.7986         -DE/DX =   -0.0002              !
 ! A2    A(2,1,7)              120.9559         -DE/DX =    0.0001              !
 ! A3    A(6,1,7)              123.2455         -DE/DX =    0.0001              !
 ! A4    A(1,2,3)              121.4814         -DE/DX =    0.0001              !
 ! A5    A(1,2,8)              119.156          -DE/DX =    0.0                 !
 ! A6    A(3,2,8)              119.3626         -DE/DX =   -0.0001              !
 ! A7    A(2,3,4)              119.5855         -DE/DX =    0.0                 !
 ! A8    A(2,3,9)              119.564          -DE/DX =    0.0                 !
 ! A9    A(4,3,9)              120.8505         -DE/DX =    0.0                 !
 ! A10   A(3,4,5)              120.6468         -DE/DX =   -0.0001              !
 ! A11   A(3,4,10)             119.4588         -DE/DX =    0.0001              !
 ! A12   A(5,4,10)             119.8944         -DE/DX =    0.0                 !
 ! A13   A(4,5,6)              116.4715         -DE/DX =    0.0                 !
 ! A14   A(4,5,11)             121.2526         -DE/DX =    0.0                 !
 ! A15   A(6,5,11)             122.2759         -DE/DX =    0.0                 !
 ! A16   A(1,6,5)              126.0161         -DE/DX =    0.0002              !
 ! D1    D(6,1,2,3)              0.0            -DE/DX =    0.0                 !
 ! D2    D(6,1,2,8)            180.0            -DE/DX =    0.0                 !
 ! D3    D(7,1,2,3)            180.0            -DE/DX =    0.0                 !
 ! D4    D(7,1,2,8)              0.0            -DE/DX =    0.0                 !
 ! D5    D(2,1,6,5)              0.0            -DE/DX =    0.0                 !
 ! D6    D(7,1,6,5)            180.0            -DE/DX =    0.0                 !
 ! D7    D(1,2,3,4)              0.0            -DE/DX =    0.0                 !
 ! D8    D(1,2,3,9)            180.0            -DE/DX =    0.0                 !
 ! D9    D(8,2,3,4)            180.0            -DE/DX =    0.0                 !
 ! D10   D(8,2,3,9)              0.0            -DE/DX =    0.0                 !
 ! D11   D(2,3,4,5)              0.0            -DE/DX =    0.0                 !
 ! D12   D(2,3,4,10)           180.0            -DE/DX =    0.0                 !
 ! D13   D(9,3,4,5)            180.0            -DE/DX =    0.0                 !
 ! D14   D(9,3,4,10)             0.0            -DE/DX =    0.0                 !
 ! D15   D(3,4,5,6)              0.0            -DE/DX =    0.0                 !
 ! D16   D(3,4,5,11)           180.0            -DE/DX =    0.0                 !
 ! D17   D(10,4,5,6)           180.0            -DE/DX =    0.0                 !
 ! D18   D(10,4,5,11)            0.0            -DE/DX =    0.0                 !
 ! D19   D(4,5,6,1)              0.0            -DE/DX =    0.0                 !
 ! D20   D(11,5,6,1)           180.0            -DE/DX =    0.0                 !
 --------------------------------------------------------------------------------
 GradGradGradGradGradGradGradGradGradGradGradGradGradGradGradGradGradGrad


 ----------------------------------------------------------------------

 Electric dipole moment (input orientation):
 (Debye = 10**-18 statcoulomb cm , SI units = C m)
                  (au)            (Debye)         (10**-30 SI)
   Tot        0.619369D+00      0.157428D+01      0.525123D+01
   x          0.310086D+00      0.788159D+00      0.262901D+01
   y         -0.536157D+00     -0.136278D+01     -0.454573D+01
   z          0.000000D+00      0.000000D+00      0.000000D+00

 Dipole polarizability, Alpha (input orientation).
 (esu units = cm**3 , SI units = C**2 m**2 J**-1)
 Alpha(0;0):
               (au)            (10**-24 esu)      (10**-40 SI)
   iso        0.756524D+02      0.112105D+02      0.124734D+02
   aniso      0.511422D+02      0.757849D+01      0.843220D+01
   xx         0.787271D+02      0.116662D+02      0.129803D+02
   yx        -0.256914D+01     -0.380707D+00     -0.423594D+00
   yy         0.103409D+03      0.153237D+02      0.170499D+02
   zx         0.000000D+00      0.000000D+00      0.000000D+00
   zy         0.000000D+00      0.000000D+00      0.000000D+00
   zz         0.448209D+02      0.664177D+01      0.738997D+01

 ----------------------------------------------------------------------

 Dipole orientation:
     6         -4.33878726         -2.50932968         -3.27209079
     6         -2.05703941         -1.18968498         -3.29944006
     6         -0.84901317         -0.49102521         -1.07272414
     6         -1.92955498         -1.11595460          1.24177671
     6         -4.21336724         -2.43679324          1.34812096
     6         -5.29466631         -3.06216059         -0.92591465
     1         -5.26569030         -3.04540236         -5.01596528
    17         -0.69353863         -0.40110680         -6.19302786
     1          0.91936793          0.53171476         -1.16234216
     1         -0.98471574         -0.56950855          2.97483888
     1         -5.07069686         -2.93262826          3.13892474

 Electric dipole moment (dipole orientation):
 (Debye = 10**-18 statcoulomb cm , SI units = C m)
                  (au)            (Debye)         (10**-30 SI)
   Tot        0.619369D+00      0.157428D+01      0.525123D+01
   x          0.000000D+00      0.000000D+00      0.000000D+00
   y          0.000000D+00      0.000000D+00      0.000000D+00
   z          0.619369D+00      0.157428D+01      0.525123D+01

 Dipole polarizability, Alpha (dipole orientation).
 (esu units = cm**3 , SI units = C**2 m**2 J**-1)
 Alpha(0;0):
               (au)            (10**-24 esu)      (10**-40 SI)
   iso        0.756524D+02      0.112105D+02      0.124734D+02
   aniso      0.511422D+02      0.757849D+01      0.843220D+01
   xx         0.731958D+02      0.108465D+02      0.120684D+02
   yx         0.164106D+02      0.243180D+01      0.270574D+01
   yy         0.543119D+02      0.804819D+01      0.895482D+01
   zx        -0.815068D+01     -0.120781D+01     -0.134387D+01
   zy        -0.471393D+01     -0.698533D+00     -0.777222D+00
   zz         0.994496D+02      0.147369D+02      0.163970D+02

 ----------------------------------------------------------------------
 1\1\GINC-SH03-01N15\Freq\UM062X\6-311++G(d,p)\C6H4Cl1(2)\JLAPIER\09-De
 c-2025\0\\#N Geom=AllCheck Guess=TCheck SCRF=Check GenChk UM062X/6-311
 ++G(d,p) Freq\\Neutral Radical (removed 1) _3\\0,2\C,-3.162866848,0.17
 10085593,0.\C,-1.9626635635,0.8818626909,0.\C,-0.7334767001,0.23155716
 62,0.\C,-0.6920909141,-1.1593743434,0.\C,-1.8724583865,-1.9070465275,0
 .\C,-3.0471205904,-1.1962799877,0.\H,-4.1153698759,0.6861700889,0.\Cl,
 -2.0077322158,2.6246632103,0.\H,0.1785676532,0.8138203332,0.\H,0.26703
 90198,-1.664093587,0.\H,-1.8516975788,-2.9897676032,0.\\Version=ES64L-
 G16RevB.01\State=2-A'\HF=-691.1135661\S2=0.762276\S2-1=0.\S2A=0.75007\
 RMSD=7.725e-09\RMSF=1.287e-04\ZeroPoint=0.0785213\Thermal=0.083954\Dip
 ole=0.3100855,-0.5361572,0.\DipoleDeriv=-0.0747093,-0.113478,0.,-0.073
 9077,-0.317572,0.,0.,0.,-0.0879379,0.1558327,-0.0307443,0.,-0.0237145,
 1.2578423,0.,0.,0.,-0.0215911,-0.0633153,0.1276655,0.,0.1068025,-0.351
 0883,0.,0.,0.,-0.1272767,0.0934597,0.0529264,0.,0.0033582,0.1376727,0.
 ,0.,0.,-0.1300363,-0.1525359,-0.0152653,0.,-0.0373755,-0.0292798,0.,0.
 ,0.,-0.1097828,-0.0189425,-0.1010168,0.,-0.0430473,0.026562,0.,0.,0.,-
 0.0678656,0.0583159,0.0401094,0.,0.0449366,0.0731347,0.,0.,0.,0.159418
 3,-0.0970278,0.0127532,0.,0.0237849,-0.8576163,0.,0.,0.,-0.0687523,0.0
 294889,-0.0392055,0.,-0.0466398,0.0482993,0.,0.,0.,0.1532628,-0.028256
 9,0.0559984,0.,0.0405106,0.0311278,0.,0.,0.,0.1391159,0.0976906,0.0102
 571,0.,0.0052919,-0.0190824,0.,0.,0.,0.1614457\Polar=78.7271263,-2.569
 1389,103.4092749,0.,0.,44.8208909\Quadrupole=2.5588996,0.6692118,-3.22
 81114,-1.6740395,0.,0.\PG=CS [SG(C6H4Cl1)]\NImag=0\\0.69928287,-0.0784
 8330,0.67768235,0.,0.,0.12155665,-0.27746723,-0.03916058,0.,0.64910666
 ,-0.12529318,-0.14633523,0.,-0.00236551,0.51880837,0.,0.,-0.06266094,0
 .,0.,0.12265587,-0.05424612,-0.03493513,0.,-0.29323730,0.11827551,0.,0
 .73056971,0.02285183,0.06716002,0.,0.04178625,-0.14993513,0.,0.0482638
 4,0.70027680,0.,0.,0.00778010,0.,0.,-0.06361857,0.,0.,0.12995794,-0.01
 563151,-0.03201705,0.,0.03691590,0.02759957,0.,-0.13001142,0.04468704,
 0.,0.71862418,-0.03523189,-0.06149659,0.,0.09659420,-0.02745768,0.,-0.
 03282337,-0.34205652,0.,-0.03729417,0.67924366,0.,0.,-0.00181910,0.,0.
 ,0.00361155,0.,0.,-0.06058728,0.,0.,0.13276366,0.03639543,0.07682111,0
 .,-0.08698633,0.00009737,0.,0.04154121,-0.08354395,0.,-0.26358902,-0.0
 4913962,0.,0.61980546,0.03634339,-0.02273606,0.,-0.00241854,0.00399532
 ,0.,-0.02469477,-0.02742157,0.,-0.13639589,-0.18216484,0.,-0.02936822,
 0.74953384,0.,0.,0.00537363,0.,0.,-0.00398563,0.,0.,0.00657932,0.,0.,-
 0.06123861,0.,0.,0.12381677,-0.10536503,0.01060398,0.,0.04918256,-0.01
 834001,0.,-0.02770629,0.03666319,0.,-0.07164767,-0.03344372,0.,-0.2815
 7247,0.13501949,0.,0.43890289,0.04958279,-0.35830261,0.,-0.09690653,-0
 .04226071,0.,0.03656156,-0.06125695,0.,0.03551144,0.07371655,0.,0.0971
 4597,-0.17581629,0.,-0.14940362,0.58814250,0.,0.,-0.05120731,0.,0.,0.0
 1272452,0.,0.,-0.00514690,0.,0.,0.01283442,0.,0.,-0.05251847,0.,0.,0.0
 7550604,-0.27958425,0.11748549,0.,-0.01870050,0.01446181,0.,-0.0024844
 1,-0.00375450,0.,0.00012396,-0.00068797,0.,0.00137332,-0.00187496,0.,0
 .00386123,0.00332364,0.,0.29499901,0.12531459,-0.11676731,0.,-0.015688
 29,0.00970918,0.,-0.00328785,-0.00113322,0.,-0.00111378,-0.00104886,0.
 ,0.00060771,-0.00498882,0.,0.02458060,-0.01132332,0.,-0.13027221,0.124
 21141,0.,0.,-0.03407986,0.,0.,0.00493874,0.,0.,0.00563240,0.,0.,-0.000
 40461,0.,0.,0.00604428,0.,0.,-0.00126305,0.,0.,0.02244861,0.00315967,-
 0.02631857,0.,-0.04020563,0.00318893,0.,0.00234276,0.02894260,0.,-0.00
 397157,-0.00202184,0.,0.00256051,0.00076605,0.,-0.00378697,-0.00012534
 ,0.,0.00104920,-0.00042533,0.,0.03759238,0.00069440,-0.03778445,0.,0.0
 0429580,-0.17224983,0.,0.00121926,-0.03687078,0.,0.00464788,0.00290991
 ,0.,0.00055751,-0.00178130,0.,-0.00588606,-0.00060898,0.,0.00075249,0.
 00091755,0.,-0.00572916,0.24583559,0.,0.,0.00503752,0.,0.,-0.02388027,
 0.,0.,0.00450813,0.,0.,0.00485086,0.,0.,-0.00084913,0.,0.,0.00482265,0
 .,0.,-0.00267974,0.,0.,0.01152529,-0.00332500,0.00329225,0.,-0.0183485
 9,-0.01688581,0.,-0.26597422,-0.13101106,0.,0.00581085,0.00294692,0.,0
 .00179426,0.00113421,0.,0.00016042,0.00137664,0.,-0.00078696,-0.000751
 46,0.,0.00089216,-0.00036049,0.,0.27905961,0.00330814,-0.00064363,0.,0
 .01413924,0.00929632,0.,-0.13394872,-0.14000287,0.,-0.02649943,-0.0102
 6803,0.,0.00089149,-0.00511860,0.,0.00120782,-0.00108451,0.,0.00066937
 ,0.00060650,0.,0.00078113,0.00091146,0.,0.14035882,0.14603055,0.,0.,0.
 00550495,0.,0.,0.00264901,0.,0.,-0.03546904,0.,0.,0.00319396,0.,0.,0.0
 0687809,0.,0.,-0.00115105,0.,0.,0.00010393,0.,0.,-0.00267610,0.,0.,0.0
 2514357,0.00099883,-0.00087486,0.,0.00171172,-0.00034667,0.,0.00321338
 ,-0.00230680,0.,-0.28208232,0.11867514,0.,-0.01720104,0.01358285,0.,-0
 .00470701,-0.00272239,0.,-0.00006954,0.00007296,0.,0.00011272,-0.00018
 227,0.,0.00053032,0.00030946,0.,0.29658490,-0.00024575,-0.00102406,0.,
 -0.00049870,-0.00419224,0.,0.02839468,-0.00937320,0.,0.11760430,-0.120
 24962,0.,-0.01659618,0.01024603,0.,-0.00398406,0.00017974,0.,0.0000322
 6,0.00006032,0.,0.00098117,-0.00123185,0.,-0.00032460,0.00082570,0.,-0
 .12616486,0.12407025,0.,0.,-0.00122016,0.,0.,0.00733905,0.,0.,0.003594
 84,0.,0.,-0.03822166,0.,0.,0.00451233,0.,0.,0.00681694,0.,0.,-0.000586
 92,0.,0.,0.00004078,0.,0.,-0.00415936,0.,0.,0.02596044,-0.00421765,0.0
 0358665,0.,-0.00197126,-0.00039202,0.,-0.00400728,-0.00257844,0.,0.005
 45862,-0.02757368,0.,-0.05412131,0.00790638,0.,0.00267834,0.02565583,0
 .,0.00021893,0.00096307,0.,0.00025477,-0.00000937,0.,0.00018715,-0.001
 21732,0.,0.00090805,0.00080176,0.,0.05461163,0.00115897,0.00024756,0.,
 0.00022267,0.00062162,0.,-0.00302502,0.00061341,0.,0.00327009,-0.01112
 798,0.,0.00252680,-0.34374772,0.,0.00298240,-0.01138542,0.,-0.00013544
 ,-0.00024342,0.,-0.00003963,-0.00004732,0.,0.00022458,-0.00055289,0.,-
 0.00004255,0.00068893,0.,-0.00714287,0.36493323,0.,0.,0.00573452,0.,0.
 ,0.00022667,0.,0.,0.00676907,0.,0.,0.00501681,0.,0.,-0.03461258,0.,0.,
 -0.00141778,0.,0.,-0.00015380,0.,0.,-0.00069999,0.,0.,-0.00001796,0.,0
 .,-0.00407626,0.,0.,0.02323130\\0.00039954,-0.00011254,0.,-0.00017175,
 0.00033281,0.,0.00004838,-0.00014020,0.,-0.00008582,-0.00004277,0.,0.0
 0019902,0.00005945,0.,-0.00035706,-0.00006614,0.,-0.00001309,0.0000147
 6,0.,-0.00000958,-0.00014385,0.,-0.00002011,0.00000408,0.,-0.00001566,
 0.00006283,0.,0.00002613,0.00003157,0.\\\@


 FLOATING POINT NUMBERS ARE LIKE SANDPILES:
 EVERY TIME THAT YOU MOVE ONE, YOU LOSE A LITTLE SAND 
 AND YOU PICK UP A LITTLE DIRT.
 Job cpu time:       0 days  0 hours 27 minutes 26.6 seconds.
 Elapsed time:       0 days  0 hours  6 minutes 53.0 seconds.
 File lengths (MBytes):  RWF=    124 Int=      0 D2E=      0 Chk=     34 Scr=      1
 Normal termination of Gaussian 16 at Tue Dec  9 14:13:29 2025.
