 Entering Gaussian System, Link 0=g16
 Initial command:
 /share/software/user/restricted/gaussian/g16.B01/l1.exe "/home/users/jlapier/Chloroaromatics/Gau-15416.inp" -scrdir="/home/users/jlapier/Chloroaromatics/"
 Entering Link 1 = /share/software/user/restricted/gaussian/g16.B01/l1.exe PID=     15419.
  
 Copyright (c) 1988-2017, Gaussian, Inc.  All Rights Reserved.
  
 This is part of the Gaussian(R) 16 program.  It is based on
 the Gaussian(R) 09 system (copyright 2009, Gaussian, Inc.),
 the Gaussian(R) 03 system (copyright 2003, Gaussian, Inc.),
 the Gaussian(R) 98 system (copyright 1998, Gaussian, Inc.),
 the Gaussian(R) 94 system (copyright 1995, Gaussian, Inc.),
 the Gaussian 92(TM) system (copyright 1992, Gaussian, Inc.),
 the Gaussian 90(TM) system (copyright 1990, Gaussian, Inc.),
 the Gaussian 88(TM) system (copyright 1988, Gaussian, Inc.),
 the Gaussian 86(TM) system (copyright 1986, Carnegie Mellon
 University), and the Gaussian 82(TM) system (copyright 1983,
 Carnegie Mellon University). Gaussian is a federally registered
 trademark of Gaussian, Inc.
  
 This software contains proprietary and confidential information,
 including trade secrets, belonging to Gaussian, Inc.
  
 This software is provided under written license and may be
 used, copied, transmitted, or stored only in accord with that
 written license.
  
 The following legend is applicable only to US Government
 contracts under FAR:
  
                    RESTRICTED RIGHTS LEGEND
  
 Use, reproduction and disclosure by the US Government is
 subject to restrictions as set forth in subparagraphs (a)
 and (c) of the Commercial Computer Software - Restricted
 Rights clause in FAR 52.227-19.
  
 Gaussian, Inc.
 340 Quinnipiac St., Bldg. 40, Wallingford CT 06492
  
  
 ---------------------------------------------------------------
 Warning -- This program may not be used in any manner that
 competes with the business of Gaussian, Inc. or will provide
 assistance to any competitor of Gaussian, Inc.  The licensee
 of this program is prohibited from giving any competitor of
 Gaussian, Inc. access to this program.  By using this program,
 the user acknowledges that Gaussian, Inc. is engaged in the
 business of creating and licensing software in the field of
 computational chemistry and represents and warrants to the
 licensee that it is not a competitor of Gaussian, Inc. and that
 it will not use this program in any manner prohibited above.
 ---------------------------------------------------------------
  

 Cite this work as:
 Gaussian 16, Revision B.01,
 M. J. Frisch, G. W. Trucks, H. B. Schlegel, G. E. Scuseria, 
 M. A. Robb, J. R. Cheeseman, G. Scalmani, V. Barone, 
 G. A. Petersson, H. Nakatsuji, X. Li, M. Caricato, A. V. Marenich, 
 J. Bloino, B. G. Janesko, R. Gomperts, B. Mennucci, H. P. Hratchian, 
 J. V. Ortiz, A. F. Izmaylov, J. L. Sonnenberg, D. Williams-Young, 
 F. Ding, F. Lipparini, F. Egidi, J. Goings, B. Peng, A. Petrone, 
 T. Henderson, D. Ranasinghe, V. G. Zakrzewski, J. Gao, N. Rega, 
 G. Zheng, W. Liang, M. Hada, M. Ehara, K. Toyota, R. Fukuda, 
 J. Hasegawa, M. Ishida, T. Nakajima, Y. Honda, O. Kitao, H. Nakai, 
 T. Vreven, K. Throssell, J. A. Montgomery, Jr., J. E. Peralta, 
 F. Ogliaro, M. J. Bearpark, J. J. Heyd, E. N. Brothers, K. N. Kudin, 
 V. N. Staroverov, T. A. Keith, R. Kobayashi, J. Normand, 
 K. Raghavachari, A. P. Rendell, J. C. Burant, S. S. Iyengar, 
 J. Tomasi, M. Cossi, J. M. Millam, M. Klene, C. Adamo, R. Cammi, 
 J. W. Ochterski, R. L. Martin, K. Morokuma, O. Farkas, 
 J. B. Foresman, and D. J. Fox, Gaussian, Inc., Wallingford CT, 2016.
 
 ******************************************
 Gaussian 16:  ES64L-G16RevB.01 20-Dec-2017
                 9-Dec-2025 
 ******************************************
 %mem=8GB
 %nprocshare=4
 Will use up to    4 processors via shared memory.
 %oldchk=geometry_chks/_4ClBzNeutralRadical.chk
 %chk=frequency_chks/_4ClBzNeutralRadical_Freq.chk
 Copying data from "geometry_chks/_4ClBzNeutralRadical.chk" to current chk file "frequency_chks/_4ClBzNeutralRadical_Freq.chk"
 IOpt=  2 FromEx=T IUOpen= 4 IOptOp= 5 NList=   0 IFRang= 0 IUIn= 4 IUOut= 2.
 -------------------------------------------------------
 # opt freq 6-311++g(d,p) guess=read geom=allcheck m062x
 -------------------------------------------------------
 1/18=20,19=15,26=3,29=7,38=1/1,3;
 2/9=110,12=2,40=1/2;
 3/5=4,6=6,7=1111,11=2,14=-4,25=1,30=1,71=1,74=-55,116=-2/1,2,3;
 4/5=1/1;
 5/5=2,38=6/2;
 6/7=2,8=2,9=2,10=2,28=1/1;
 7//1,2,3,16;
 1/18=20,19=15,26=3/3(2);
 2/9=110/2;
 99//99;
 2/9=110/2;
 3/5=4,6=6,7=1111,11=2,14=-2,25=1,30=1,71=1,74=-55/1,2,3;
 4/5=5,16=3,69=1/1;
 5/5=2,38=5/2;
 7//1,2,3,16;
 1/18=20,19=15,26=3/3(-5);
 2/9=110/2;
 6/7=2,8=2,9=2,10=2,19=2,28=1/1;
 99/9=1/99;
 Structure from the checkpoint file:  "frequency_chks/_4ClBzNeutralRadical_Freq.chk"
 ------------------------------
 Neutral Radical (removed 1) _4
 ------------------------------
 Charge =  0 Multiplicity = 2
 Redundant internal coordinates found in file.  (old form).
 C,0,-3.2183574972,0.2182367722,0.
 C,0,-2.0159625711,0.9490711371,0.
 C,0,-0.7905216038,0.256822863,0.
 C,0,-0.7264502737,-1.149167269,0.
 C,0,-1.9216010753,-1.8917873456,0.
 C,0,-3.0719484895,-1.1452708812,0.
 H,0,-4.1970958852,0.7126063799,0.
 H,0,-2.0368263798,2.0478949152,0.
 Cl,0,0.6570485771,1.1464546635,0.
 H,0,0.2444810971,-1.6641309554,0.
 H,0,-1.9226358986,-2.9882102796,0.
 Recover connectivity data from disk.

 GradGradGradGradGradGradGradGradGradGradGradGradGradGradGradGradGradGrad
 Berny optimization.
 Initialization pass.
                           ----------------------------
                           !    Initial Parameters    !
                           ! (Angstroms and Degrees)  !
 --------------------------                            --------------------------
 ! Name  Definition              Value          Derivative Info.                !
 --------------------------------------------------------------------------------
 ! R1    R(1,2)                  1.4071         estimate D2E/DX2                !
 ! R2    R(1,6)                  1.3713         estimate D2E/DX2                !
 ! R3    R(1,7)                  1.0965         estimate D2E/DX2                !
 ! R4    R(2,3)                  1.4074         estimate D2E/DX2                !
 ! R5    R(2,8)                  1.099          estimate D2E/DX2                !
 ! R6    R(3,4)                  1.4074         estimate D2E/DX2                !
 ! R7    R(3,9)                  1.6991         estimate D2E/DX2                !
 ! R8    R(4,5)                  1.4071         estimate D2E/DX2                !
 ! R9    R(4,10)                 1.099          estimate D2E/DX2                !
 ! R10   R(5,6)                  1.3713         estimate D2E/DX2                !
 ! R11   R(5,11)                 1.0964         estimate D2E/DX2                !
 ! A1    A(2,1,6)              115.1631         estimate D2E/DX2                !
 ! A2    A(2,1,7)              121.9094         estimate D2E/DX2                !
 ! A3    A(6,1,7)              122.9275         estimate D2E/DX2                !
 ! A4    A(1,2,3)              119.2461         estimate D2E/DX2                !
 ! A5    A(1,2,8)              120.2041         estimate D2E/DX2                !
 ! A6    A(3,2,8)              120.5498         estimate D2E/DX2                !
 ! A7    A(2,3,4)              122.0712         estimate D2E/DX2                !
 ! A8    A(2,3,9)              118.9644         estimate D2E/DX2                !
 ! A9    A(4,3,9)              118.9644         estimate D2E/DX2                !
 ! A10   A(3,4,5)              119.246          estimate D2E/DX2                !
 ! A11   A(3,4,10)             120.5498         estimate D2E/DX2                !
 ! A12   A(5,4,10)             120.2042         estimate D2E/DX2                !
 ! A13   A(4,5,6)              115.1633         estimate D2E/DX2                !
 ! A14   A(4,5,11)             121.9093         estimate D2E/DX2                !
 ! A15   A(6,5,11)             122.9274         estimate D2E/DX2                !
 ! A16   A(1,6,5)              129.1103         estimate D2E/DX2                !
 ! D1    D(6,1,2,3)              0.0            estimate D2E/DX2                !
 ! D2    D(6,1,2,8)            180.0            estimate D2E/DX2                !
 ! D3    D(7,1,2,3)            180.0            estimate D2E/DX2                !
 ! D4    D(7,1,2,8)              0.0            estimate D2E/DX2                !
 ! D5    D(2,1,6,5)              0.0            estimate D2E/DX2                !
 ! D6    D(7,1,6,5)            180.0            estimate D2E/DX2                !
 ! D7    D(1,2,3,4)              0.0            estimate D2E/DX2                !
 ! D8    D(1,2,3,9)            180.0            estimate D2E/DX2                !
 ! D9    D(8,2,3,4)            180.0            estimate D2E/DX2                !
 ! D10   D(8,2,3,9)              0.0            estimate D2E/DX2                !
 ! D11   D(2,3,4,5)              0.0            estimate D2E/DX2                !
 ! D12   D(2,3,4,10)           180.0            estimate D2E/DX2                !
 ! D13   D(9,3,4,5)            180.0            estimate D2E/DX2                !
 ! D14   D(9,3,4,10)             0.0            estimate D2E/DX2                !
 ! D15   D(3,4,5,6)              0.0            estimate D2E/DX2                !
 ! D16   D(3,4,5,11)           180.0            estimate D2E/DX2                !
 ! D17   D(10,4,5,6)           180.0            estimate D2E/DX2                !
 ! D18   D(10,4,5,11)            0.0            estimate D2E/DX2                !
 ! D19   D(4,5,6,1)              0.0            estimate D2E/DX2                !
 ! D20   D(11,5,6,1)           180.0            estimate D2E/DX2                !
 --------------------------------------------------------------------------------
 Trust Radius=3.00D-01 FncErr=1.00D-07 GrdErr=1.00D-06 EigMax=2.50D+02 EigMin=1.00D-04
 Number of steps in this run=     57 maximum allowed number of steps=    100.
 GradGradGradGradGradGradGradGradGradGradGradGradGradGradGradGradGradGrad

                          Input orientation:                          
 ---------------------------------------------------------------------
 Center     Atomic      Atomic             Coordinates (Angstroms)
 Number     Number       Type             X           Y           Z
 ---------------------------------------------------------------------
      1          6           0       -3.218357    0.218237   -0.000000
      2          6           0       -2.015963    0.949071   -0.000000
      3          6           0       -0.790522    0.256823   -0.000000
      4          6           0       -0.726450   -1.149167   -0.000000
      5          6           0       -1.921601   -1.891787   -0.000000
      6          6           0       -3.071948   -1.145271   -0.000000
      7          1           0       -4.197096    0.712606   -0.000000
      8          1           0       -2.036826    2.047895   -0.000000
      9         17           0        0.657049    1.146455   -0.000000
     10          1           0        0.244481   -1.664131   -0.000000
     11          1           0       -1.922636   -2.988210   -0.000000
 ---------------------------------------------------------------------
                    Distance matrix (angstroms):
                    1          2          3          4          5
     1  C    0.000000
     2  C    1.407079   0.000000
     3  C    2.428143   1.407449   0.000000
     4  C    2.842428   2.462813   1.407449   0.000000
     5  C    2.476647   2.842425   2.428141   1.407079   0.000000
     6  C    1.371346   2.345501   2.677830   2.345501   1.371345
     7  H    1.096508   2.193914   3.436930   3.938475   3.458431
     8  H    2.177996   1.099022   2.182021   3.455183   3.941367
     9  Cl   3.985017   2.680289   1.699089   2.680289   3.985016
    10  H    3.941391   3.455203   2.182039   1.099043   2.178013
    11  H    3.458352   3.938387   3.436848   2.193841   1.096423
                    6          7          8          9         10
     6  C    0.000000
     7  H    2.172019   0.000000
     8  H    3.356752   2.539638   0.000000
     9  Cl   4.376920   4.873494   2.840697   0.000000
    10  H    3.356772   5.037508   4.357006   2.840705   0.000000
    11  H    2.171945   4.343871   5.037400   4.873420   2.539603
                   11
    11  H    0.000000
 Stoichiometry    C6H4Cl(2)
 Framework group  CS[SG(C6H4Cl)]
 Deg. of freedom    19
 Full point group                 CS      NOp   2
 Largest Abelian subgroup         CS      NOp   2
 Largest concise Abelian subgroup C1      NOp   1
                         Standard orientation:                         
 ---------------------------------------------------------------------
 Center     Atomic      Atomic             Coordinates (Angstroms)
 Number     Number       Type             X           Y           Z
 ---------------------------------------------------------------------
      1          6           0       -1.238323   -1.632495    0.000000
      2          6           0       -1.231405   -0.225433    0.000000
      3          6           0        0.000001    0.456148    0.000000
      4          6           0        1.231408   -0.225432    0.000000
      5          6           0        1.238324   -1.632494    0.000000
      6          6           0        0.000001   -2.221683    0.000000
      7          1           0       -2.171971   -2.207501    0.000000
      8          1           0       -2.178492    0.332128    0.000000
      9         17           0        0.000001    2.155237    0.000000
     10          1           0        2.178514    0.332139    0.000000
     11          1           0        2.171900   -2.207455    0.000000
 ---------------------------------------------------------------------
 Rotational constants (GHZ):           5.4771872           1.6897767           1.2913729
 Standard basis: 6-311++G(d,p) (5D, 7F)
 There are   149 symmetry adapted cartesian basis functions of A'  symmetry.
 There are    48 symmetry adapted cartesian basis functions of A"  symmetry.
 There are   142 symmetry adapted basis functions of A'  symmetry.
 There are    48 symmetry adapted basis functions of A"  symmetry.
   190 basis functions,   305 primitive gaussians,   197 cartesian basis functions
    29 alpha electrons       28 beta electrons
       nuclear repulsion energy       306.0245459171 Hartrees.
 NAtoms=   11 NActive=   11 NUniq=   11 SFac= 1.00D+00 NAtFMM=   60 NAOKFM=F Big=F
 Integral buffers will be    131072 words long.
 Raffenetti 2 integral format.
 Two-electron integral symmetry is turned on.
 One-electron integrals computed using PRISM.
 NBasis=   190 RedAO= T EigKep=  1.95D-06  NBF=   142    48
 NBsUse=   190 1.00D-06 EigRej= -1.00D+00 NBFU=   142    48
 Initial guess from the checkpoint file:  "frequency_chks/_4ClBzNeutralRadical_Freq.chk"
 B after Tr=     0.000000   -0.000000    0.000000
         Rot=    1.000000    0.000000   -0.000000   -0.000000 Ang=   0.00 deg.
 Initial guess orbital symmetries:
 Alpha Orbitals:
       Occupied  (A') (A') (A') (A') (A') (A') (A') (A') (A') (A')
                 (A") (A') (A') (A") (A') (A') (A") (A") (A") (A")
                 (A') (A") (A') (A') (A') (A') (A') (A') (A')
       Virtual   (A') (A') (A') (A') (A') (A') (A') (A') (A') (A')
                 (A') (A') (A') (A') (A') (A') (A') (A') (A') (A')
                 (A') (A') (A') (A') (A') (A') (A') (A') (A') (A')
                 (A') (A') (A') (A') (A') (A') (A') (A') (A') (A')
                 (A') (A') (A') (A') (A') (A') (A') (A') (A') (A')
                 (A') (A') (A') (A') (A') (A') (A') (A') (A') (A')
                 (A') (A') (A') (A') (A') (A') (A') (A') (A') (A')
                 (A') (A') (A') (A') (A') (A') (A') (A') (A') (A')
                 (A') (A') (A') (A') (A') (A') (A') (A') (A') (A')
                 (A') (A') (A') (A') (A') (A') (A') (A') (A') (A')
                 (A') (A') (A') (A') (A') (A') (A') (A') (A') (A')
                 (A') (A') (A') (A') (A') (A') (A') (A') (A') (A')
                 (A") (A") (A") (A") (A") (A") (A") (A") (A") (A")
                 (A") (A") (A") (A") (A") (A") (A") (A") (A") (A")
                 (A") (A") (A") (A") (A") (A") (A") (A") (A") (A")
                 (A") (A") (A") (A") (A") (A") (A") (A") (A") (A")
                 (A")
 Beta  Orbitals:
       Occupied  (A') (A') (A') (A') (A') (A') (A') (A') (A') (A')
                 (A") (A') (A') (A") (A') (A") (A") (A") (A') (A")
                 (A') (A") (A') (A') (A') (A') (A') (A')
       Virtual   (A') (A') (A') (A') (A') (A') (A') (A') (A') (A')
                 (A') (A') (A') (A') (A') (A') (A') (A') (A') (A')
                 (A') (A') (A') (A') (A') (A') (A') (A') (A') (A')
                 (A') (A') (A') (A') (A') (A') (A') (A') (A') (A')
                 (A') (A') (A') (A') (A') (A') (A') (A') (A') (A')
                 (A') (A') (A') (A') (A') (A') (A') (A') (A') (A')
                 (A') (A') (A') (A') (A') (A') (A') (A') (A') (A')
                 (A') (A') (A') (A') (A') (A') (A') (A') (A') (A')
                 (A') (A') (A') (A') (A') (A') (A') (A') (A') (A')
                 (A') (A') (A') (A') (A') (A') (A') (A') (A') (A')
                 (A') (A') (A') (A') (A') (A') (A') (A') (A') (A')
                 (A') (A') (A') (A') (A') (A') (A') (A') (A') (A')
                 (A') (A") (A") (A") (A") (A") (A") (A") (A") (A")
                 (A") (A") (A") (A") (A") (A") (A") (A") (A") (A")
                 (A") (A") (A") (A") (A") (A") (A") (A") (A") (A")
                 (A") (A") (A") (A") (A") (A") (A") (A") (A") (A")
                 (A") (A")
 Initial guess <Sx>= 0.0000 <Sy>= 0.0000 <Sz>= 0.5000 <S**2>= 0.7831 S= 0.5164
 Keep R1 and R2 ints in memory in symmetry-blocked form, NReq=262273818.
 Requested convergence on RMS density matrix=1.00D-08 within 128 cycles.
 Requested convergence on MAX density matrix=1.00D-06.
 Requested convergence on             energy=1.00D-06.
 No special actions if energy rises.
 EnCoef did     4 forward-backward iterations
 EnCoef did     5 forward-backward iterations
 EnCoef did     6 forward-backward iterations
 EnCoef did     2 forward-backward iterations
 SCF Done:  E(UM062X) =  -691.109645986     A.U. after   27 cycles
            NFock= 27  Conv=0.75D-08     -V/T= 2.0029
 <Sx>= 0.0000 <Sy>= 0.0000 <Sz>= 0.5000 <S**2>= 0.7627 S= 0.5063
 <L.S>=  0.00000000000    
 Annihilation of the first spin contaminant:
 S**2 before annihilation     0.7627,   after     0.7501

 **********************************************************************

            Population analysis using the SCF Density.

 **********************************************************************

 Orbital symmetries:
 Alpha Orbitals:
       Occupied  (A') (A') (A') (A') (A') (A') (A') (A') (A') (A')
                 (A") (A') (A') (A') (A') (A') (A') (A') (A') (A')
                 (A') (A") (A') (A') (A") (A') (A") (A') (A")
       Virtual   (A") (A') (A") (A') (A') (A') (A') (A") (A') (A')
                 (A") (A") (A') (A') (A') (A') (A") (A") (A') (A')
                 (A') (A") (A') (A') (A") (A') (A') (A') (A") (A')
                 (A') (A') (A') (A') (A') (A') (A') (A') (A') (A')
                 (A') (A') (A') (A') (A') (A') (A") (A') (A') (A")
                 (A') (A') (A') (A") (A") (A') (A') (A') (A") (A")
                 (A') (A") (A') (A') (A') (A') (A') (A') (A") (A')
                 (A') (A') (A') (A") (A') (A') (A') (A') (A') (A")
                 (A") (A') (A") (A") (A') (A') (A") (A') (A") (A')
                 (A') (A') (A') (A") (A') (A") (A") (A') (A') (A')
                 (A') (A") (A') (A') (A") (A') (A") (A") (A') (A')
                 (A') (A") (A') (A") (A') (A") (A") (A') (A') (A')
                 (A') (A') (A') (A') (A') (A") (A') (A') (A') (A')
                 (A') (A") (A") (A") (A') (A") (A') (A") (A') (A')
                 (A') (A') (A') (A') (A') (A') (A') (A') (A') (A')
                 (A') (A') (A') (A') (A') (A') (A') (A") (A') (A')
                 (A')
 Beta  Orbitals:
       Occupied  (A') (A') (A') (A') (A') (A') (A') (A') (A') (A")
                 (A') (A') (A') (A') (A') (A') (A') (A') (A') (A')
                 (A') (A") (A') (A') (A") (A') (A") (A")
       Virtual   (A') (A") (A') (A') (A") (A') (A') (A') (A") (A')
                 (A') (A") (A") (A') (A') (A') (A") (A') (A') (A")
                 (A') (A") (A') (A') (A') (A') (A") (A') (A') (A')
                 (A") (A') (A') (A') (A') (A') (A') (A') (A') (A')
                 (A') (A') (A') (A') (A') (A') (A') (A") (A') (A')
                 (A') (A") (A') (A') (A') (A") (A") (A') (A') (A")
                 (A") (A') (A") (A') (A') (A') (A') (A') (A') (A')
                 (A") (A') (A') (A') (A") (A') (A') (A') (A') (A')
                 (A") (A") (A') (A") (A") (A') (A') (A') (A") (A")
                 (A') (A') (A') (A') (A") (A") (A') (A") (A') (A')
                 (A') (A') (A") (A') (A') (A") (A') (A") (A") (A')
                 (A') (A') (A") (A') (A") (A') (A") (A") (A') (A')
                 (A') (A') (A') (A') (A') (A') (A") (A') (A') (A')
                 (A') (A') (A") (A") (A") (A") (A') (A') (A") (A')
                 (A') (A') (A') (A') (A') (A') (A') (A') (A') (A')
                 (A') (A') (A') (A') (A') (A') (A') (A') (A") (A')
                 (A') (A')
 The electronic state is 2-A'.
 Alpha  occ. eigenvalues -- -102.68102 -10.61685 -10.57900 -10.57511 -10.57509
 Alpha  occ. eigenvalues --  -10.57121 -10.57115  -9.82463  -7.54977  -7.54290
 Alpha  occ. eigenvalues --   -7.54289  -1.01374  -0.95523  -0.87101  -0.82799
 Alpha  occ. eigenvalues --   -0.71897  -0.68301  -0.59613  -0.55399  -0.54314
 Alpha  occ. eigenvalues --   -0.51924  -0.48262  -0.48260  -0.44545  -0.41612
 Alpha  occ. eigenvalues --   -0.38413  -0.33048  -0.31013  -0.30951
 Alpha virt. eigenvalues --   -0.00583  -0.00233   0.00251   0.00793   0.01750
 Alpha virt. eigenvalues --    0.03331   0.04186   0.06294   0.06641   0.07283
 Alpha virt. eigenvalues --    0.08597   0.08919   0.09085   0.10066   0.11932
 Alpha virt. eigenvalues --    0.12876   0.12911   0.13551   0.13851   0.13970
 Alpha virt. eigenvalues --    0.14295   0.14583   0.14733   0.15228   0.15975
 Alpha virt. eigenvalues --    0.15980   0.18605   0.18682   0.20710   0.21427
 Alpha virt. eigenvalues --    0.21543   0.21639   0.24334   0.24415   0.26169
 Alpha virt. eigenvalues --    0.26379   0.28410   0.28499   0.29686   0.30723
 Alpha virt. eigenvalues --    0.33546   0.36047   0.36137   0.38346   0.47445
 Alpha virt. eigenvalues --    0.48106   0.48408   0.50439   0.52310   0.55058
 Alpha virt. eigenvalues --    0.55683   0.57366   0.58643   0.59285   0.60782
 Alpha virt. eigenvalues --    0.61654   0.63435   0.63746   0.63789   0.64287
 Alpha virt. eigenvalues --    0.68103   0.70203   0.71498   0.75386   0.78124
 Alpha virt. eigenvalues --    0.79520   0.80216   0.85930   0.86694   0.87016
 Alpha virt. eigenvalues --    0.87538   0.90103   0.90356   0.92532   0.92794
 Alpha virt. eigenvalues --    0.94410   0.96207   0.99091   1.02272   1.04116
 Alpha virt. eigenvalues --    1.04299   1.06237   1.10259   1.16513   1.18604
 Alpha virt. eigenvalues --    1.23506   1.25867   1.26718   1.35623   1.38354
 Alpha virt. eigenvalues --    1.47619   1.54076   1.54958   1.59272   1.61936
 Alpha virt. eigenvalues --    1.62038   1.64374   1.67096   1.70980   1.72106
 Alpha virt. eigenvalues --    1.74356   1.77784   1.89804   1.90588   1.90768
 Alpha virt. eigenvalues --    1.93041   1.95042   1.95650   1.97647   2.01338
 Alpha virt. eigenvalues --    2.05736   2.08611   2.08783   2.21527   2.26939
 Alpha virt. eigenvalues --    2.32365   2.34217   2.38255   2.39943   2.45575
 Alpha virt. eigenvalues --    2.47853   2.55719   2.57806   2.59221   2.68339
 Alpha virt. eigenvalues --    2.69433   2.71616   2.73325   2.74132   2.76132
 Alpha virt. eigenvalues --    2.77148   2.81632   2.83582   2.91804   2.93947
 Alpha virt. eigenvalues --    2.93984   2.96813   3.11072   3.16487   3.27949
 Alpha virt. eigenvalues --    3.37672   3.37800   3.50069   3.57818   3.70006
 Alpha virt. eigenvalues --    3.82738   4.00442   4.13933   4.15076   4.78975
 Alpha virt. eigenvalues --    9.98132  23.54530  23.90991  24.01771  24.08726
 Alpha virt. eigenvalues --   24.12315  24.24261  25.93629  26.25209  26.73765
 Alpha virt. eigenvalues --  216.08213
  Beta  occ. eigenvalues -- -102.68105 -10.61723 -10.57424 -10.57422 -10.57153
  Beta  occ. eigenvalues --  -10.57138 -10.56918  -9.82464  -7.54971  -7.54308
  Beta  occ. eigenvalues --   -7.54291  -1.01154  -0.94617  -0.86699  -0.81402
  Beta  occ. eigenvalues --   -0.71423  -0.67235  -0.58482  -0.54653  -0.53371
  Beta  occ. eigenvalues --   -0.51422  -0.48000  -0.46973  -0.43976  -0.40931
  Beta  occ. eigenvalues --   -0.38384  -0.33091  -0.29887
  Beta virt. eigenvalues --   -0.05424  -0.00644  -0.00058   0.00990   0.01316
  Beta virt. eigenvalues --    0.02268   0.03540   0.04745   0.06236   0.06783
  Beta virt. eigenvalues --    0.07548   0.08776   0.08971   0.09000   0.10954
  Beta virt. eigenvalues --    0.11876   0.12710   0.12829   0.13352   0.13555
  Beta virt. eigenvalues --    0.13630   0.14492   0.14595   0.14604   0.15387
  Beta virt. eigenvalues --    0.15979   0.16163   0.18767   0.18876   0.21494
  Beta virt. eigenvalues --    0.21523   0.21697   0.21820   0.24264   0.24375
  Beta virt. eigenvalues --    0.26210   0.26674   0.28556   0.28754   0.30095
  Beta virt. eigenvalues --    0.31166   0.33977   0.36299   0.36551   0.39064
  Beta virt. eigenvalues --    0.47643   0.48209   0.48433   0.50677   0.52058
  Beta virt. eigenvalues --    0.55175   0.55273   0.57530   0.58556   0.58678
  Beta virt. eigenvalues --    0.59316   0.60983   0.63688   0.63703   0.63793
  Beta virt. eigenvalues --    0.64391   0.68791   0.70095   0.71213   0.75354
  Beta virt. eigenvalues --    0.78154   0.79533   0.80547   0.85981   0.86036
  Beta virt. eigenvalues --    0.86757   0.87929   0.90158   0.90732   0.92508
  Beta virt. eigenvalues --    0.92790   0.93582   0.96459   0.99389   1.02215
  Beta virt. eigenvalues --    1.04597   1.04840   1.06271   1.10312   1.17103
  Beta virt. eigenvalues --    1.18519   1.23480   1.26693   1.28223   1.35614
  Beta virt. eigenvalues --    1.40047   1.48025   1.54685   1.55186   1.59566
  Beta virt. eigenvalues --    1.62567   1.63139   1.64521   1.67203   1.71388
  Beta virt. eigenvalues --    1.72724   1.74862   1.77819   1.90395   1.90852
  Beta virt. eigenvalues --    1.90906   1.93296   1.95461   1.96260   1.98226
  Beta virt. eigenvalues --    2.02349   2.05667   2.08673   2.08920   2.21794
  Beta virt. eigenvalues --    2.27067   2.32373   2.34646   2.39111   2.40468
  Beta virt. eigenvalues --    2.45762   2.48355   2.55749   2.58152   2.59299
  Beta virt. eigenvalues --    2.68849   2.69543   2.71646   2.73798   2.74564
  Beta virt. eigenvalues --    2.76297   2.77206   2.81980   2.83593   2.91994
  Beta virt. eigenvalues --    2.93773   2.94115   2.99717   3.11165   3.16753
  Beta virt. eigenvalues --    3.28557   3.38062   3.38076   3.50382   3.58698
  Beta virt. eigenvalues --    3.70293   3.82956   4.00504   4.13949   4.15587
  Beta virt. eigenvalues --    4.79172   9.98129  23.54672  23.91155  24.01810
  Beta virt. eigenvalues --   24.08921  24.12290  24.24827  25.93586  26.25208
  Beta virt. eigenvalues --   26.73786 216.08206
          Condensed to atoms (all electrons):
               1          2          3          4          5          6
     1  C    7.137180  -0.547453   0.389480  -0.933260   0.354710  -0.142458
     2  C   -0.547453  14.290789  -2.252298  -5.415305  -0.933395   0.737949
     3  C    0.389480  -2.252298  12.757179  -2.252129   0.389516  -2.315246
     4  C   -0.933260  -5.415305  -2.252129  14.290548  -0.547393   0.737812
     5  C    0.354710  -0.933395   0.389516  -0.547393   7.137242  -0.142437
     6  C   -0.142458   0.737949  -2.315246   0.737812  -0.142437   6.541831
     7  H    0.323250  -0.011059  -0.016557   0.053633  -0.036870   0.023214
     8  H   -0.009320   0.520836  -0.135596  -0.103995   0.008174   0.024456
     9  Cl   0.190928  -0.062093  -0.830621  -0.062127   0.190932  -0.011301
    10  H    0.008173  -0.103985  -0.135589   0.520824  -0.009325   0.024453
    11  H   -0.036874   0.053636  -0.016566  -0.011061   0.323272   0.023218
               7          8          9         10         11
     1  C    0.323250  -0.009320   0.190928   0.008173  -0.036874
     2  C   -0.011059   0.520836  -0.062093  -0.103985   0.053636
     3  C   -0.016557  -0.135596  -0.830621  -0.135589  -0.016566
     4  C    0.053633  -0.103995  -0.062127   0.520824  -0.011061
     5  C   -0.036870   0.008174   0.190932  -0.009325   0.323272
     6  C    0.023214   0.024456  -0.011301   0.024453   0.023218
     7  H    0.471193  -0.003950  -0.004435   0.001758  -0.000842
     8  H   -0.003950   0.479088   0.008576  -0.002484   0.001758
     9  Cl  -0.004435   0.008576  17.295207   0.008575  -0.004435
    10  H    0.001758  -0.002484   0.008575   0.479088  -0.003951
    11  H   -0.000842   0.001758  -0.004435  -0.003951   0.471202
          Atomic-Atomic Spin Densities.
               1          2          3          4          5          6
     1  C    0.372750  -0.320407   0.324838  -0.243397   0.340200  -0.390642
     2  C   -0.320407   0.420079  -0.278080   0.175575  -0.243405   0.274064
     3  C    0.324838  -0.278080   0.260133  -0.278057   0.324822  -0.370254
     4  C   -0.243397   0.175575  -0.278057   0.420053  -0.320386   0.274039
     5  C    0.340200  -0.243405   0.324822  -0.320386   0.372738  -0.390632
     6  C   -0.390642   0.274064  -0.370254   0.274039  -0.390632   1.376288
     7  H    0.005746   0.001559  -0.012227   0.005296  -0.010790   0.001858
     8  H   -0.018291   0.018814  -0.018504   0.007893  -0.007213   0.014582
     9  Cl   0.043711  -0.057366   0.063408  -0.057360   0.043708  -0.047117
    10  H   -0.007213   0.007893  -0.018501   0.018810  -0.018288   0.014580
    11  H   -0.010794   0.005300  -0.012231   0.001559   0.005742   0.001862
               7          8          9         10         11
     1  C    0.005746  -0.018291   0.043711  -0.007213  -0.010794
     2  C    0.001559   0.018814  -0.057366   0.007893   0.005300
     3  C   -0.012227  -0.018504   0.063408  -0.018501  -0.012231
     4  C    0.005296   0.007893  -0.057360   0.018810   0.001559
     5  C   -0.010790  -0.007213   0.043708  -0.018288   0.005742
     6  C    0.001858   0.014582  -0.047117   0.014580   0.001862
     7  H    0.032053   0.002028  -0.000473   0.000139   0.000173
     8  H    0.002028   0.010643  -0.004002   0.000201   0.000139
     9  Cl  -0.000473  -0.004002   0.011639  -0.004001  -0.000473
    10  H    0.000139   0.000201  -0.004001   0.010643   0.002029
    11  H    0.000173   0.000139  -0.000473   0.002029   0.032052
 Mulliken charges and spin densities:
               1          2
     1  C   -0.734355   0.096500
     2  C   -0.277623   0.004026
     3  C    0.418425  -0.014653
     4  C   -0.277547   0.004025
     5  C   -0.734428   0.096496
     6  C    0.498508   0.758628
     7  H    0.200665   0.025363
     8  H    0.212457   0.006292
     9  Cl   0.280794  -0.008327
    10  H    0.212463   0.006292
    11  H    0.200643   0.025358
 Sum of Mulliken charges =  -0.00000   1.00000
 Mulliken charges and spin densities with hydrogens summed into heavy atoms:
               1          2
     1  C   -0.533691   0.121862
     2  C   -0.065167   0.010319
     3  C    0.418425  -0.014653
     4  C   -0.065084   0.010317
     5  C   -0.533785   0.121854
     6  C    0.498508   0.758628
     9  Cl   0.280794  -0.008327
 Electronic spatial extent (au):  <R**2>=            847.2573
 Charge=             -0.0000 electrons
 Dipole moment (field-independent basis, Debye):
    X=              0.0000    Y=             -0.8494    Z=              0.0000  Tot=              0.8494
 Quadrupole moment (field-independent basis, Debye-Ang):
   XX=            -40.3046   YY=            -49.3639   ZZ=            -51.2857
   XY=              0.0001   XZ=              0.0000   YZ=              0.0000
 Traceless Quadrupole moment (field-independent basis, Debye-Ang):
   XX=              6.6801   YY=             -2.3792   ZZ=             -4.3010
   XY=              0.0001   XZ=              0.0000   YZ=              0.0000
 Octapole moment (field-independent basis, Debye-Ang**2):
  XXX=              0.0000  YYY=             16.8090  ZZZ=              0.0000  XYY=             -0.0001
  XXY=             -3.5153  XXZ=              0.0000  XZZ=              0.0002  YZZ=              7.7139
  YYZ=              0.0000  XYZ=              0.0000
 Hexadecapole moment (field-independent basis, Debye-Ang**3):
 XXXX=           -277.7092 YYYY=           -794.9415 ZZZZ=            -60.7776 XXXY=              0.0001
 XXXZ=              0.0000 YYYX=             -0.0007 YYYZ=              0.0000 ZZZX=              0.0000
 ZZZY=              0.0000 XXYY=           -164.3725 XXZZ=            -70.3358 YYZZ=           -152.1133
 XXYZ=              0.0000 YYXZ=              0.0000 ZZXY=             -0.0007
 N-N= 3.060245459171D+02 E-N=-2.241387602024D+03  KE= 6.891013439443D+02
 Symmetry A'   KE= 6.368019357486D+02
 Symmetry A"   KE= 5.229940819567D+01
 Symmetry A'   SP= 9.999999999999D-01
 Symmetry A"   SP= 1.123965837733D-14
                          Isotropic Fermi Contact Couplings
        Atom                 a.u.       MegaHertz       Gauss      10(-4) cm-1
     1  C(13)              0.00946      10.63779       3.79583       3.54839
     2  C(13)              0.05149      57.88369      20.65434      19.30792
     3  C(13)             -0.01120     -12.59191      -4.49311      -4.20021
     4  C(13)              0.05149      57.88438      20.65459      19.30815
     5  C(13)              0.00947      10.64319       3.79776       3.55019
     6  C(13)              0.41141     462.50388     165.03289     154.27469
     7  H(1)               0.01167      52.17686      18.61800      17.40433
     8  H(1)               0.00254      11.37579       4.05916       3.79455
     9  Cl(35)             0.00511       2.23908       0.79896       0.74688
    10  H(1)               0.00255      11.37607       4.05927       3.79465
    11  H(1)               0.01167      52.17220      18.61634      17.40277
 --------------------------------------------------------
       Center         ----  Spin Dipole Couplings  ----
                      3XX-RR        3YY-RR        3ZZ-RR
 --------------------------------------------------------
     1   Atom        0.062889      0.037211     -0.100100
     2   Atom       -0.041112      0.049092     -0.007980
     3   Atom        0.021445      0.037333     -0.058779
     4   Atom       -0.041112      0.049092     -0.007980
     5   Atom        0.062886      0.037214     -0.100100
     6   Atom       -0.575736      0.976476     -0.400739
     7   Atom        0.021494     -0.009408     -0.012087
     8   Atom        0.003478      0.001950     -0.005429
     9   Atom        0.011771      0.037800     -0.049572
    10   Atom        0.003478      0.001950     -0.005429
    11   Atom        0.021496     -0.009408     -0.012088
 --------------------------------------------------------
                        XY            XZ            YZ
 --------------------------------------------------------
     1   Atom       -0.055543      0.000000      0.000000
     2   Atom       -0.007656      0.000000      0.000000
     3   Atom        0.000000      0.000000      0.000000
     4   Atom        0.007655      0.000000      0.000000
     5   Atom        0.055540      0.000000      0.000000
     6   Atom       -0.000003      0.000000      0.000000
     7   Atom       -0.005882      0.000000      0.000000
     8   Atom       -0.007413      0.000000      0.000000
     9   Atom       -0.000000      0.000000      0.000000
    10   Atom        0.007413      0.000000      0.000000
    11   Atom        0.005883      0.000000      0.000000
 --------------------------------------------------------


 ---------------------------------------------------------------------------------
              Anisotropic Spin Dipole Couplings in Principal Axis System
 ---------------------------------------------------------------------------------

       Atom             a.u.   MegaHertz   Gauss  10(-4) cm-1        Axes

              Baa    -0.1001   -13.432    -4.793    -4.481  0.0000  0.0000  1.0000
     1 C(13)  Bbb    -0.0070    -0.934    -0.333    -0.311  0.6224  0.7827  0.0000
              Bcc     0.1071    14.366     5.126     4.792  0.7827 -0.6224 -0.0000
 
              Baa    -0.0418    -5.603    -1.999    -1.869  0.9965  0.0840  0.0000
     2 C(13)  Bbb    -0.0080    -1.071    -0.382    -0.357  0.0000  0.0000  1.0000
              Bcc     0.0497     6.674     2.382     2.226 -0.0840  0.9965  0.0000
 
              Baa    -0.0588    -7.888    -2.814    -2.631  0.0000  0.0000  1.0000
     3 C(13)  Bbb     0.0214     2.878     1.027     0.960  1.0000 -0.0000 -0.0000
              Bcc     0.0373     5.010     1.788     1.671  0.0000  1.0000  0.0000
 
              Baa    -0.0418    -5.603    -1.999    -1.869  0.9965 -0.0840 -0.0000
     4 C(13)  Bbb    -0.0080    -1.071    -0.382    -0.357  0.0000  0.0000  1.0000
              Bcc     0.0497     6.674     2.382     2.226  0.0840  0.9965  0.0000
 
              Baa    -0.1001   -13.432    -4.793    -4.481  0.0000  0.0000  1.0000
     5 C(13)  Bbb    -0.0070    -0.933    -0.333    -0.311 -0.6224  0.7827 -0.0000
              Bcc     0.1071    14.366     5.126     4.792  0.7827  0.6224  0.0000
 
              Baa    -0.5757   -77.258   -27.568   -25.771  1.0000  0.0000  0.0000
     6 C(13)  Bbb    -0.4007   -53.775   -19.188   -17.938  0.0000  0.0000  1.0000
              Bcc     0.9765   131.034    46.756    43.708 -0.0000  1.0000  0.0000
 
              Baa    -0.0121    -6.449    -2.301    -2.151  0.0000  0.0000  1.0000
     7 H(1)   Bbb    -0.0105    -5.597    -1.997    -1.867  0.1809  0.9835  0.0000
              Bcc     0.0226    12.046     4.298     4.018  0.9835 -0.1809 -0.0000
 
              Baa    -0.0054    -2.896    -1.034    -0.966  0.0000  0.0000  1.0000
     8 H(1)   Bbb    -0.0047    -2.528    -0.902    -0.843  0.6699  0.7425  0.0000
              Bcc     0.0102     5.425     1.936     1.809  0.7425 -0.6699 -0.0000
 
              Baa    -0.0496    -2.594    -0.926    -0.865  0.0000  0.0000  1.0000
     9 Cl(35) Bbb     0.0118     0.616     0.220     0.206  1.0000  0.0000  0.0000
              Bcc     0.0378     1.978     0.706     0.660 -0.0000  1.0000  0.0000
 
              Baa    -0.0054    -2.896    -1.034    -0.966  0.0000  0.0000  1.0000
    10 H(1)   Bbb    -0.0047    -2.528    -0.902    -0.843 -0.6699  0.7425 -0.0000
              Bcc     0.0102     5.424     1.936     1.809  0.7425  0.6699  0.0000
 
              Baa    -0.0121    -6.450    -2.301    -2.151  0.0000  0.0000  1.0000
    11 H(1)   Bbb    -0.0105    -5.597    -1.997    -1.867 -0.1809  0.9835 -0.0000
              Bcc     0.0226    12.047     4.299     4.018  0.9835  0.1809  0.0000
 

 ---------------------------------------------------------------------------------

 Calling FoFJK, ICntrl=      2127 FMM=F ISym2X=1 I1Cent= 0 IOpClX= 1 NMat=1 NMatS=1 NMatT=0.
 ***** Axes restored to original set *****
 -------------------------------------------------------------------
 Center     Atomic                   Forces (Hartrees/Bohr)
 Number     Number              X              Y              Z
 -------------------------------------------------------------------
      1        6           0.009201053    0.003725189   -0.000000000
      2        6          -0.000456705   -0.000020490   -0.000000000
      3        6          -0.025669648   -0.015776599   -0.000000000
      4        6          -0.000213564   -0.000401860   -0.000000000
      5        6           0.007480762    0.006575636   -0.000000000
      6        6          -0.013415826   -0.008241766   -0.000000000
      7        1           0.008623022   -0.003888820   -0.000000000
      8        1           0.002585180   -0.010491910   -0.000000000
      9       17           0.019644720    0.012073186   -0.000000000
     10        1          -0.008204596    0.007051755   -0.000000000
     11        1           0.000425602    0.009395678   -0.000000000
 -------------------------------------------------------------------
 Cartesian Forces:  Max     0.025669648 RMS     0.008343603

 GradGradGradGradGradGradGradGradGradGradGradGradGradGradGradGradGradGrad
 Berny optimization.
 FormGI is forming the generalized inverse of G from B-inverse, IUseBI=4.
 Internal  Forces:  Max     0.023058119 RMS     0.006252058
 Search for a local minimum.
 Step number   1 out of a maximum of   57
 All quantities printed in internal units (Hartrees-Bohrs-Radians)
 Mixed Optimization -- RFO/linear search
 Second derivative matrix not updated -- first step.
 ITU=  0
     Eigenvalues ---    0.01990   0.01991   0.01993   0.01993   0.02048
     Eigenvalues ---    0.02134   0.02174   0.02393   0.16000   0.16000
     Eigenvalues ---    0.16000   0.16000   0.22000   0.22905   0.23873
     Eigenvalues ---    0.25000   0.33788   0.33791   0.34071   0.34081
     Eigenvalues ---    0.36000   0.41047   0.42074   0.44419   0.44467
     Eigenvalues ---    0.48989   0.50323
 RFO step:  Lambda=-5.45155275D-03 EMin= 1.99021689D-02
 Linear search not attempted -- first point.
 Iteration  1 RMS(Cart)=  0.02579669 RMS(Int)=  0.00026149
 Iteration  2 RMS(Cart)=  0.00038782 RMS(Int)=  0.00006914
 Iteration  3 RMS(Cart)=  0.00000007 RMS(Int)=  0.00006914
 ClnCor:  largest displacement from symmetrization is 5.20D-09 for atom     9.
 Variable       Old X    -DE/DX   Delta X   Delta X   Delta X     New X
                                 (Linear)    (Quad)   (Total)
    R1        2.65899  -0.00724   0.00000  -0.01610  -0.01610   2.64289
    R2        2.59147  -0.00195   0.00000  -0.00306  -0.00296   2.58851
    R3        2.07210  -0.00945   0.00000  -0.02730  -0.02730   2.04480
    R4        2.65969  -0.01364   0.00000  -0.03118  -0.03127   2.62842
    R5        2.07685  -0.01054   0.00000  -0.03069  -0.03069   2.04616
    R6        2.65969  -0.01365   0.00000  -0.03118  -0.03128   2.62842
    R7        3.21081   0.02306   0.00000   0.06309   0.06309   3.27391
    R8        2.65899  -0.00724   0.00000  -0.01610  -0.01610   2.64290
    R9        2.07689  -0.01055   0.00000  -0.03074  -0.03074   2.04616
   R10        2.59147  -0.00195   0.00000  -0.00305  -0.00295   2.58851
   R11        2.07194  -0.00940   0.00000  -0.02714  -0.02714   2.04480
    A1        2.00998   0.00661   0.00000   0.02931   0.02939   2.03937
    A2        2.12772  -0.00374   0.00000  -0.01726  -0.01730   2.11042
    A3        2.14549  -0.00287   0.00000  -0.01204  -0.01209   2.13340
    A4        2.08124   0.00229   0.00000   0.00680   0.00669   2.08793
    A5        2.09796   0.00133   0.00000   0.01157   0.01163   2.10958
    A6        2.10399  -0.00362   0.00000  -0.01837  -0.01832   2.08567
    A7        2.13054  -0.00228   0.00000  -0.01332  -0.01353   2.11702
    A8        2.07632   0.00114   0.00000   0.00666   0.00676   2.08308
    A9        2.07632   0.00114   0.00000   0.00666   0.00676   2.08308
   A10        2.08124   0.00229   0.00000   0.00681   0.00670   2.08794
   A11        2.10399  -0.00362   0.00000  -0.01838  -0.01832   2.08567
   A12        2.09796   0.00133   0.00000   0.01157   0.01162   2.10958
   A13        2.00998   0.00661   0.00000   0.02930   0.02938   2.03936
   A14        2.12772  -0.00374   0.00000  -0.01726  -0.01730   2.11042
   A15        2.14549  -0.00287   0.00000  -0.01204  -0.01208   2.13341
   A16        2.25340  -0.01551   0.00000  -0.05890  -0.05864   2.19476
    D1        0.00000  -0.00000   0.00000  -0.00000   0.00000   0.00000
    D2        3.14159   0.00000   0.00000  -0.00000   0.00000   3.14159
    D3        3.14159  -0.00000   0.00000  -0.00000   0.00000   3.14159
    D4        0.00000   0.00000   0.00000  -0.00000   0.00000   0.00000
    D5        0.00000  -0.00000   0.00000   0.00000   0.00000   0.00000
    D6        3.14159  -0.00000   0.00000   0.00000   0.00000   3.14159
    D7        0.00000   0.00000   0.00000   0.00000   0.00000   0.00000
    D8        3.14159  -0.00000   0.00000   0.00000   0.00000   3.14159
    D9        3.14159   0.00000   0.00000   0.00000   0.00000   3.14159
   D10        0.00000   0.00000   0.00000   0.00000   0.00000   0.00000
   D11        0.00000  -0.00000   0.00000   0.00000   0.00000   0.00000
   D12        3.14159  -0.00000   0.00000   0.00000   0.00000   3.14159
   D13        3.14159  -0.00000   0.00000   0.00000   0.00000   3.14159
   D14        0.00000   0.00000   0.00000   0.00000   0.00000   0.00000
   D15        0.00000  -0.00000   0.00000  -0.00000   0.00000   0.00000
   D16        3.14159  -0.00000   0.00000  -0.00000   0.00000   3.14159
   D17        3.14159   0.00000   0.00000  -0.00000   0.00000   3.14159
   D18        0.00000  -0.00000   0.00000  -0.00000   0.00000   0.00000
   D19        0.00000   0.00000   0.00000   0.00000   0.00000   0.00000
   D20        3.14159   0.00000   0.00000   0.00000   0.00000   3.14159
         Item               Value     Threshold  Converged?
 Maximum Force            0.023058     0.000450     NO 
 RMS     Force            0.006252     0.000300     NO 
 Maximum Displacement     0.069429     0.001800     NO 
 RMS     Displacement     0.025863     0.001200     NO 
 Predicted change in Energy=-2.771779D-03
 GradGradGradGradGradGradGradGradGradGradGradGradGradGradGradGradGradGrad

                          Input orientation:                          
 ---------------------------------------------------------------------
 Center     Atomic      Atomic             Coordinates (Angstroms)
 Number     Number       Type             X           Y           Z
 ---------------------------------------------------------------------
      1          6           0       -3.208258    0.201915   -0.000000
      2          6           0       -2.013193    0.928405   -0.000000
      3          6           0       -0.797563    0.252502   -0.000000
      4          6           0       -0.743645   -1.137352   -0.000000
      5          6           0       -1.931608   -1.875401   -0.000000
      6          6           0       -3.102009   -1.163739   -0.000000
      7          1           0       -4.165550    0.706346   -0.000000
      8          1           0       -2.021235    2.011155   -0.000000
      9         17           0        0.678453    1.159615   -0.000000
     10          1           0        0.218717   -1.633605   -0.000000
     11          1           0       -1.913979   -2.957321   -0.000000
 ---------------------------------------------------------------------
                    Distance matrix (angstroms):
                    1          2          3          4          5
     1  C    0.000000
     2  C    1.398560   0.000000
     3  C    2.411225   1.390899   0.000000
     4  C    2.804987   2.424686   1.390899   0.000000
     5  C    2.438253   2.804993   2.411229   1.398560   0.000000
     6  C    1.369780   2.358514   2.704849   2.358512   1.369782
     7  H    1.082062   2.163782   3.398427   3.886985   3.414075
     8  H    2.163879   1.082779   2.142483   3.397842   3.887589
     9  Cl   4.002963   2.701558   1.732477   2.701559   4.002966
    10  H    3.887582   3.397841   2.142481   1.082779   2.163877
    11  H    3.414078   3.886993   3.398433   2.163785   1.082064
                    6          7          8          9         10
     6  C    0.000000
     7  H    2.151356   0.000000
     8  H    3.353807   2.510102   0.000000
     9  Cl   4.437327   4.865163   2.830801   0.000000
    10  H    3.353804   4.969625   4.278044   2.830801   0.000000
    11  H    2.151361   4.300235   4.969633   4.865168   2.510103
                   11
    11  H    0.000000
 Stoichiometry    C6H4Cl(2)
 Framework group  CS[SG(C6H4Cl)]
 Deg. of freedom    19
 Full point group                 CS      NOp   2
 Largest Abelian subgroup         CS      NOp   2
 Largest concise Abelian subgroup C1      NOp   1
                         Standard orientation:                         
 ---------------------------------------------------------------------
 Center     Atomic      Atomic             Coordinates (Angstroms)
 Number     Number       Type             X           Y           Z
 ---------------------------------------------------------------------
      1          6           0       -1.219125   -1.634196    0.000000
      2          6           0       -1.212344   -0.235653    0.000000
      3          6           0       -0.000000    0.446127    0.000000
      4          6           0        1.212342   -0.235654    0.000000
      5          6           0        1.219128   -1.634198    0.000000
      6          6           0       -0.000000   -2.258722    0.000000
      7          1           0       -2.150115   -2.185662    0.000000
      8          1           0       -2.139023    0.324415    0.000000
      9         17           0       -0.000000    2.178604    0.000000
     10          1           0        2.139021    0.324414    0.000000
     11          1           0        2.150120   -2.185665    0.000000
 ---------------------------------------------------------------------
 Rotational constants (GHZ):           5.6475839           1.6594376           1.2825763
 Standard basis: 6-311++G(d,p) (5D, 7F)
 There are   149 symmetry adapted cartesian basis functions of A'  symmetry.
 There are    48 symmetry adapted cartesian basis functions of A"  symmetry.
 There are   142 symmetry adapted basis functions of A'  symmetry.
 There are    48 symmetry adapted basis functions of A"  symmetry.
   190 basis functions,   305 primitive gaussians,   197 cartesian basis functions
    29 alpha electrons       28 beta electrons
       nuclear repulsion energy       306.1613013563 Hartrees.
 NAtoms=   11 NActive=   11 NUniq=   11 SFac= 1.00D+00 NAtFMM=   60 NAOKFM=F Big=F
 Integral buffers will be    131072 words long.
 Raffenetti 2 integral format.
 Two-electron integral symmetry is turned on.
 One-electron integrals computed using PRISM.
 NBasis=   190 RedAO= T EigKep=  1.89D-06  NBF=   142    48
 NBsUse=   190 1.00D-06 EigRej= -1.00D+00 NBFU=   142    48
 Initial guess from the checkpoint file:  "frequency_chks/_4ClBzNeutralRadical_Freq.chk"
 B after Tr=    -0.000000    0.000000    0.000000
         Rot=    1.000000   -0.000000   -0.000000   -0.000000 Ang=  -0.00 deg.
 Initial guess orbital symmetries:
 Alpha Orbitals:
       Occupied  (A') (A') (A') (A') (A') (A') (A') (A') (A') (A')
                 (A") (A') (A') (A') (A') (A') (A') (A') (A') (A')
                 (A') (A") (A') (A') (A") (A') (A") (A') (A")
       Virtual   (A") (A') (A") (A') (A') (A') (A') (A") (A') (A')
                 (A") (A") (A') (A') (A') (A') (A") (A") (A') (A')
                 (A') (A") (A') (A') (A") (A') (A') (A') (A") (A')
                 (A') (A') (A') (A') (A') (A') (A') (A') (A') (A')
                 (A') (A') (A') (A') (A') (A') (A") (A') (A') (A")
                 (A') (A') (A') (A") (A") (A') (A') (A') (A") (A")
                 (A') (A") (A') (A') (A') (A') (A') (A') (A") (A')
                 (A') (A') (A') (A") (A') (A') (A') (A') (A') (A")
                 (A") (A') (A") (A") (A') (A') (A") (A') (A") (A')
                 (A') (A') (A') (A") (A') (A") (A") (A') (A') (A')
                 (A') (A") (A') (A') (A") (A') (A") (A") (A') (A')
                 (A') (A") (A') (A") (A') (A") (A") (A') (A') (A')
                 (A') (A') (A') (A') (A') (A") (A') (A') (A') (A')
                 (A') (A") (A") (A") (A') (A") (A') (A") (A') (A')
                 (A') (A') (A') (A') (A') (A') (A') (A') (A') (A')
                 (A') (A') (A') (A') (A') (A') (A') (A") (A') (A')
                 (A')
 Beta  Orbitals:
       Occupied  (A') (A') (A') (A') (A') (A') (A') (A') (A') (A")
                 (A') (A') (A') (A') (A') (A') (A') (A') (A') (A')
                 (A') (A") (A') (A') (A") (A') (A") (A")
       Virtual   (A') (A") (A') (A') (A") (A') (A') (A') (A") (A')
                 (A') (A") (A") (A') (A') (A') (A") (A') (A') (A")
                 (A') (A") (A') (A') (A') (A') (A") (A') (A') (A')
                 (A") (A') (A') (A') (A') (A') (A') (A') (A') (A')
                 (A') (A') (A') (A') (A') (A') (A') (A") (A') (A')
                 (A') (A") (A') (A') (A') (A") (A") (A') (A') (A")
                 (A") (A') (A") (A') (A') (A') (A') (A') (A') (A')
                 (A") (A') (A') (A') (A") (A') (A') (A') (A') (A')
                 (A") (A") (A') (A") (A") (A') (A') (A') (A") (A")
                 (A') (A') (A') (A') (A") (A") (A') (A") (A') (A')
                 (A') (A') (A") (A') (A') (A") (A') (A") (A") (A')
                 (A') (A') (A") (A') (A") (A') (A") (A") (A') (A')
                 (A') (A') (A') (A') (A') (A') (A") (A') (A') (A')
                 (A') (A') (A") (A") (A") (A") (A') (A') (A") (A')
                 (A') (A') (A') (A') (A') (A') (A') (A') (A') (A')
                 (A') (A') (A') (A') (A') (A') (A') (A') (A") (A')
                 (A') (A')
 Initial guess <Sx>= 0.0000 <Sy>= 0.0000 <Sz>= 0.5000 <S**2>= 0.7628 S= 0.5064
 ExpMin= 3.60D-02 ExpMax= 1.06D+05 ExpMxC= 3.62D+03 IAcc=3 IRadAn=         5 AccDes= 0.00D+00
 Harris functional with IExCor= 1009 and IRadAn=       5 diagonalized for initial guess.
 HarFok:  IExCor= 1009 AccDes= 0.00D+00 IRadAn=         5 IDoV= 1 UseB2=F ITyADJ=14
 ICtDFT=  3500011 ScaDFX=  1.000000  1.000000  1.000000  1.000000
 FoFCou: FMM=F IPFlag=           0 FMFlag=      100000 FMFlg1=           0
         NFxFlg=           0 DoJE=T BraDBF=F KetDBF=T FulRan=T
         wScrn=  0.000000 ICntrl=       500 IOpCl=  0 I1Cent=   200000004 NGrid=           0
         NMat0=    1 NMatS0=      1 NMatT0=    0 NMatD0=    1 NMtDS0=    0 NMtDT0=    0
 Petite list used in FoFCou.
 Keep R1 and R2 ints in memory in symmetry-blocked form, NReq=262273818.
 Requested convergence on RMS density matrix=1.00D-08 within 128 cycles.
 Requested convergence on MAX density matrix=1.00D-06.
 Requested convergence on             energy=1.00D-06.
 No special actions if energy rises.
 SCF Done:  E(UM062X) =  -691.112586992     A.U. after   16 cycles
            NFock= 16  Conv=0.27D-08     -V/T= 2.0027
 <Sx>= 0.0000 <Sy>= 0.0000 <Sz>= 0.5000 <S**2>= 0.7624 S= 0.5062
 <L.S>=  0.00000000000    
 Annihilation of the first spin contaminant:
 S**2 before annihilation     0.7624,   after     0.7501
 Calling FoFJK, ICntrl=      2127 FMM=F ISym2X=1 I1Cent= 0 IOpClX= 1 NMat=1 NMatS=1 NMatT=0.
 ***** Axes restored to original set *****
 -------------------------------------------------------------------
 Center     Atomic                   Forces (Hartrees/Bohr)
 Number     Number              X              Y              Z
 -------------------------------------------------------------------
      1        6           0.003472638    0.001995913   -0.000000000
      2        6          -0.000956865    0.001762651   -0.000000000
      3        6          -0.007164615   -0.004402779   -0.000000000
      4        6           0.001140474   -0.001650940   -0.000000000
      5        6           0.003348707    0.002197613   -0.000000000
      6        6          -0.004011457   -0.002466863   -0.000000000
      7        1          -0.000433531    0.000856445   -0.000000000
      8        1          -0.000400460    0.000306523   -0.000000000
      9       17           0.004343872    0.002669448   -0.000000000
     10        1           0.000092991   -0.000495860   -0.000000000
     11        1           0.000568246   -0.000772149   -0.000000000
 -------------------------------------------------------------------
 Cartesian Forces:  Max     0.007164615 RMS     0.002211355

 GradGradGradGradGradGradGradGradGradGradGradGradGradGradGradGradGradGrad
 Berny optimization.
 Using GEDIIS/GDIIS optimizer.
 FormGI is forming the generalized inverse of G from B-inverse, IUseBI=4.
 Internal  Forces:  Max     0.005098547 RMS     0.001226856
 Search for a local minimum.
 Step number   2 out of a maximum of   57
 All quantities printed in internal units (Hartrees-Bohrs-Radians)
 Mixed Optimization -- RFO/linear search
 Update second derivatives using D2CorX and points    1    2
 DE= -2.94D-03 DEPred=-2.77D-03 R= 1.06D+00
 TightC=F SS=  1.41D+00  RLast= 1.31D-01 DXNew= 5.0454D-01 3.9349D-01
 Trust test= 1.06D+00 RLast= 1.31D-01 DXMaxT set to 3.93D-01
 ITU=  1  0
 Use linear search instead of GDIIS.
     Eigenvalues ---    0.01990   0.01991   0.01993   0.01993   0.02047
     Eigenvalues ---    0.02137   0.02176   0.02384   0.15905   0.16000
     Eigenvalues ---    0.16000   0.16189   0.21019   0.22000   0.24840
     Eigenvalues ---    0.25000   0.32407   0.33789   0.33955   0.34076
     Eigenvalues ---    0.35608   0.40920   0.41793   0.44167   0.44420
     Eigenvalues ---    0.50269   0.51577
 RFO step:  Lambda=-2.09936339D-04 EMin= 1.99021689D-02
 Quartic linear search produced a step of  0.07878.
 Iteration  1 RMS(Cart)=  0.00416978 RMS(Int)=  0.00001279
 Iteration  2 RMS(Cart)=  0.00001626 RMS(Int)=  0.00000728
 Iteration  3 RMS(Cart)=  0.00000000 RMS(Int)=  0.00000728
 ClnCor:  largest displacement from symmetrization is 6.55D-10 for atom     9.
 Variable       Old X    -DE/DX   Delta X   Delta X   Delta X     New X
                                 (Linear)    (Quad)   (Total)
    R1        2.64289  -0.00173  -0.00127  -0.00353  -0.00480   2.63809
    R2        2.58851   0.00296  -0.00023   0.00661   0.00638   2.59489
    R3        2.04480   0.00078  -0.00215   0.00364   0.00149   2.04629
    R4        2.62842   0.00023  -0.00246   0.00165  -0.00082   2.62760
    R5        2.04616   0.00031  -0.00242   0.00229  -0.00013   2.04603
    R6        2.62842   0.00023  -0.00246   0.00165  -0.00082   2.62760
    R7        3.27391   0.00510   0.00497   0.01260   0.01757   3.29148
    R8        2.64290  -0.00174  -0.00127  -0.00353  -0.00480   2.63809
    R9        2.04616   0.00031  -0.00242   0.00229  -0.00013   2.04603
   R10        2.58851   0.00296  -0.00023   0.00660   0.00638   2.59490
   R11        2.04480   0.00078  -0.00214   0.00362   0.00149   2.04629
    A1        2.03937   0.00102   0.00232   0.00410   0.00642   2.04579
    A2        2.11042  -0.00108  -0.00136  -0.00575  -0.00712   2.10329
    A3        2.13340   0.00006  -0.00095   0.00166   0.00070   2.13411
    A4        2.08793  -0.00112   0.00053  -0.00622  -0.00570   2.08223
    A5        2.10958   0.00015   0.00092  -0.00031   0.00061   2.11019
    A6        2.08567   0.00097  -0.00144   0.00653   0.00509   2.09076
    A7        2.11702   0.00216  -0.00107   0.00915   0.00807   2.12508
    A8        2.08308  -0.00108   0.00053  -0.00458  -0.00403   2.07905
    A9        2.08308  -0.00108   0.00053  -0.00458  -0.00403   2.07905
   A10        2.08794  -0.00112   0.00053  -0.00622  -0.00570   2.08223
   A11        2.08567   0.00097  -0.00144   0.00653   0.00509   2.09076
   A12        2.10958   0.00015   0.00092  -0.00031   0.00061   2.11019
   A13        2.03936   0.00102   0.00231   0.00410   0.00642   2.04579
   A14        2.11042  -0.00108  -0.00136  -0.00576  -0.00712   2.10329
   A15        2.13341   0.00006  -0.00095   0.00166   0.00070   2.13411
   A16        2.19476  -0.00196  -0.00462  -0.00491  -0.00950   2.18525
    D1        0.00000   0.00000   0.00000   0.00000   0.00000   0.00000
    D2        3.14159  -0.00000   0.00000   0.00000   0.00000   3.14159
    D3        3.14159  -0.00000   0.00000   0.00000   0.00000   3.14159
    D4        0.00000   0.00000   0.00000   0.00000   0.00000   0.00000
    D5        0.00000   0.00000   0.00000   0.00000   0.00000   0.00000
    D6        3.14159   0.00000   0.00000  -0.00000   0.00000   3.14159
    D7        0.00000  -0.00000   0.00000  -0.00000   0.00000   0.00000
    D8        3.14159   0.00000   0.00000  -0.00000   0.00000   3.14159
    D9        3.14159  -0.00000   0.00000  -0.00000   0.00000   3.14159
   D10        0.00000   0.00000   0.00000  -0.00000   0.00000   0.00000
   D11        0.00000  -0.00000   0.00000   0.00000   0.00000   0.00000
   D12        3.14159  -0.00000   0.00000   0.00000   0.00000   3.14159
   D13        3.14159   0.00000   0.00000   0.00000   0.00000   3.14159
   D14        0.00000   0.00000   0.00000   0.00000   0.00000   0.00000
   D15        0.00000  -0.00000   0.00000  -0.00000   0.00000   0.00000
   D16        3.14159  -0.00000   0.00000  -0.00000   0.00000   3.14159
   D17        3.14159  -0.00000   0.00000   0.00000   0.00000   3.14159
   D18        0.00000   0.00000   0.00000  -0.00000   0.00000   0.00000
   D19        0.00000  -0.00000   0.00000  -0.00000   0.00000   0.00000
   D20        3.14159   0.00000   0.00000   0.00000   0.00000   3.14159
         Item               Value     Threshold  Converged?
 Maximum Force            0.005099     0.000450     NO 
 RMS     Force            0.001227     0.000300     NO 
 Maximum Displacement     0.013556     0.001800     NO 
 RMS     Displacement     0.004166     0.001200     NO 
 Predicted change in Energy=-1.214542D-04
 GradGradGradGradGradGradGradGradGradGradGradGradGradGradGradGradGradGrad

                          Input orientation:                          
 ---------------------------------------------------------------------
 Center     Atomic      Atomic             Coordinates (Angstroms)
 Number     Number       Type             X           Y           Z
 ---------------------------------------------------------------------
      1          6           0       -3.207022    0.202696   -0.000000
      2          6           0       -2.015339    0.929856   -0.000000
      3          6           0       -0.802823    0.249269   -0.000000
      4          6           0       -0.743318   -1.139922   -0.000000
      5          6           0       -1.930352   -1.874648   -0.000000
      6          6           0       -3.107017   -1.166816   -0.000000
      7          1           0       -4.162242    0.712711   -0.000000
      8          1           0       -2.024525    2.012530   -0.000000
      9         17           0        0.681114    1.161249   -0.000000
     10          1           0        0.218460   -1.637163   -0.000000
     11          1           0       -1.906805   -2.957242   -0.000000
 ---------------------------------------------------------------------
                    Distance matrix (angstroms):
                    1          2          3          4          5
     1  C    0.000000
     2  C    1.396020   0.000000
     3  C    2.404650   1.390465   0.000000
     4  C    2.805791   2.429407   1.390465   0.000000
     5  C    2.438288   2.805792   2.404651   1.396020   0.000000
     6  C    1.373159   2.363852   2.704553   2.363852   1.373159
     7  H    1.082848   2.157857   3.391235   3.888610   3.416981
     8  H    2.161896   1.082712   2.145145   3.402859   3.888318
     9  Cl   4.004550   2.706362   1.741774   2.706362   4.004550
    10  H    3.888317   3.402858   2.145144   1.082712   2.161895
    11  H    3.416983   3.888613   3.391237   2.157859   1.082850
                    6          7          8          9         10
     6  C    0.000000
     7  H    2.155486   0.000000
     8  H    3.358575   2.501871   0.000000
     9  Cl   4.446327   4.864081   2.836400   0.000000
    10  H    3.358574   4.971162   4.283834   2.836398   0.000000
    11  H    2.155489   4.307615   4.971166   4.864082   2.501872
                   11
    11  H    0.000000
 Stoichiometry    C6H4Cl(2)
 Framework group  CS[SG(C6H4Cl)]
 Deg. of freedom    19
 Full point group                 CS      NOp   2
 Largest Abelian subgroup         CS      NOp   2
 Largest concise Abelian subgroup C1      NOp   1
                         Standard orientation:                         
 ---------------------------------------------------------------------
 Center     Atomic      Atomic             Coordinates (Angstroms)
 Number     Number       Type             X           Y           Z
 ---------------------------------------------------------------------
      1          6           0        1.632623   -1.219144    0.000000
      2          6           0        0.236610   -1.214704    0.000000
      3          6           0       -0.440065   -0.000000    0.000000
      4          6           0        0.236610    1.214703    0.000000
      5          6           0        1.632622    1.219144    0.000000
      6          6           0        2.264489    0.000000    0.000000
      7          1           0        2.179400   -2.153806    0.000000
      8          1           0       -0.322443   -2.141918    0.000000
      9         17           0       -2.181838    0.000000    0.000000
     10          1           0       -0.322443    2.141916    0.000000
     11          1           0        2.179400    2.153809    0.000000
 ---------------------------------------------------------------------
 Rotational constants (GHZ):           5.6352719           1.6563274           1.2800834
 Standard basis: 6-311++G(d,p) (5D, 7F)
 There are   149 symmetry adapted cartesian basis functions of A'  symmetry.
 There are    48 symmetry adapted cartesian basis functions of A"  symmetry.
 There are   142 symmetry adapted basis functions of A'  symmetry.
 There are    48 symmetry adapted basis functions of A"  symmetry.
   190 basis functions,   305 primitive gaussians,   197 cartesian basis functions
    29 alpha electrons       28 beta electrons
       nuclear repulsion energy       305.8494240105 Hartrees.
 NAtoms=   11 NActive=   11 NUniq=   11 SFac= 1.00D+00 NAtFMM=   60 NAOKFM=F Big=F
 Integral buffers will be    131072 words long.
 Raffenetti 2 integral format.
 Two-electron integral symmetry is turned on.
 One-electron integrals computed using PRISM.
 NBasis=   190 RedAO= T EigKep=  1.89D-06  NBF=   142    48
 NBsUse=   190 1.00D-06 EigRej= -1.00D+00 NBFU=   142    48
 Initial guess from the checkpoint file:  "frequency_chks/_4ClBzNeutralRadical_Freq.chk"
 B after Tr=     0.000000    0.000000    0.000000
         Rot=    0.707107   -0.000000   -0.000000   -0.707107 Ang= -90.00 deg.
 Initial guess orbital symmetries:
 Alpha Orbitals:
       Occupied  (A') (A') (A') (A') (A') (A') (A') (A') (A') (A')
                 (A") (A') (A') (A') (A') (A') (A') (A') (A') (A')
                 (A') (A") (A') (A') (A") (A') (A") (A') (A")
       Virtual   (A") (A') (A") (A') (A') (A') (A') (A") (A') (A')
                 (A") (A") (A') (A') (A') (A") (A') (A") (A') (A')
                 (A') (A") (A') (A') (A') (A") (A') (A') (A") (A')
                 (A') (A') (A') (A') (A') (A') (A') (A') (A') (A')
                 (A') (A') (A') (A') (A') (A") (A') (A') (A') (A")
                 (A') (A') (A') (A") (A") (A') (A') (A") (A') (A")
                 (A') (A") (A') (A') (A') (A') (A') (A') (A') (A")
                 (A') (A') (A') (A") (A') (A') (A') (A') (A') (A")
                 (A") (A') (A") (A") (A') (A') (A") (A') (A") (A')
                 (A') (A') (A') (A") (A') (A") (A") (A') (A') (A')
                 (A') (A") (A') (A') (A") (A') (A") (A") (A') (A')
                 (A') (A') (A") (A") (A') (A") (A") (A') (A') (A')
                 (A') (A') (A') (A') (A") (A') (A') (A') (A') (A')
                 (A') (A") (A") (A") (A") (A') (A') (A") (A') (A')
                 (A') (A') (A') (A') (A') (A') (A') (A') (A') (A')
                 (A') (A') (A') (A') (A') (A') (A') (A") (A') (A')
                 (A')
 Beta  Orbitals:
       Occupied  (A') (A') (A') (A') (A') (A') (A') (A') (A') (A")
                 (A') (A') (A') (A') (A') (A') (A') (A') (A') (A')
                 (A') (A") (A') (A') (A") (A') (A") (A")
       Virtual   (A') (A") (A') (A') (A") (A') (A') (A') (A") (A')
                 (A') (A") (A") (A') (A') (A') (A") (A') (A') (A")
                 (A') (A') (A") (A') (A') (A') (A") (A') (A') (A')
                 (A') (A') (A") (A') (A') (A') (A') (A') (A') (A')
                 (A') (A') (A') (A') (A') (A') (A") (A') (A') (A')
                 (A') (A") (A') (A') (A') (A") (A") (A') (A") (A')
                 (A") (A') (A") (A') (A') (A') (A') (A') (A') (A')
                 (A") (A') (A') (A') (A") (A') (A') (A') (A') (A')
                 (A") (A") (A') (A") (A") (A') (A') (A') (A") (A")
                 (A') (A') (A') (A') (A") (A') (A") (A") (A') (A')
                 (A') (A') (A") (A') (A') (A") (A') (A") (A") (A')
                 (A') (A') (A') (A") (A") (A') (A") (A") (A') (A')
                 (A') (A') (A') (A') (A') (A") (A') (A') (A') (A')
                 (A') (A') (A") (A") (A") (A") (A') (A') (A") (A')
                 (A') (A') (A') (A') (A') (A') (A') (A') (A') (A')
                 (A') (A') (A') (A') (A') (A') (A') (A') (A") (A')
                 (A') (A')
 Initial guess <Sx>= 0.0000 <Sy>= 0.0000 <Sz>= 0.5000 <S**2>= 0.7624 S= 0.5062
 Keep R1 and R2 ints in memory in symmetry-blocked form, NReq=262273818.
 Requested convergence on RMS density matrix=1.00D-08 within 128 cycles.
 Requested convergence on MAX density matrix=1.00D-06.
 Requested convergence on             energy=1.00D-06.
 No special actions if energy rises.
 SCF Done:  E(UM062X) =  -691.112724541     A.U. after   14 cycles
            NFock= 14  Conv=0.55D-08     -V/T= 2.0027
 <Sx>= 0.0000 <Sy>= 0.0000 <Sz>= 0.5000 <S**2>= 0.7626 S= 0.5063
 <L.S>=  0.00000000000    
 Annihilation of the first spin contaminant:
 S**2 before annihilation     0.7626,   after     0.7501
 Calling FoFJK, ICntrl=      2127 FMM=F ISym2X=1 I1Cent= 0 IOpClX= 1 NMat=1 NMatS=1 NMatT=0.
 ***** Axes restored to original set *****
 -------------------------------------------------------------------
 Center     Atomic                   Forces (Hartrees/Bohr)
 Number     Number              X              Y              Z
 -------------------------------------------------------------------
      1        6           0.000111342   -0.000514445   -0.000000000
      2        6           0.000743957    0.000702682   -0.000000000
      3        6          -0.001887499   -0.001159710   -0.000000000
      4        6           0.000962855    0.000346124   -0.000000000
      5        6          -0.000408892    0.000330566   -0.000000000
      6        6          -0.000226885   -0.000139806   -0.000000000
      7        1          -0.000337003    0.000110274   -0.000000000
      8        1          -0.000101908    0.000167645   -0.000000000
      9       17           0.001094105    0.000672419   -0.000000000
     10        1           0.000103865   -0.000166816   -0.000000000
     11        1          -0.000053936   -0.000348935   -0.000000000
 -------------------------------------------------------------------
 Cartesian Forces:  Max     0.001887499 RMS     0.000539443

 GradGradGradGradGradGradGradGradGradGradGradGradGradGradGradGradGradGrad
 Berny optimization.
 Using GEDIIS/GDIIS optimizer.
 FormGI is forming the generalized inverse of G from B-inverse, IUseBI=4.
 Internal  Forces:  Max     0.001284217 RMS     0.000266386
 Search for a local minimum.
 Step number   3 out of a maximum of   57
 All quantities printed in internal units (Hartrees-Bohrs-Radians)
 Mixed Optimization -- En-DIIS/RFO-DIIS
 Update second derivatives using D2CorX and points    1    2    3
 DE= -1.38D-04 DEPred=-1.21D-04 R= 1.13D+00
 TightC=F SS=  1.41D+00  RLast= 3.05D-02 DXNew= 6.6177D-01 9.1609D-02
 Trust test= 1.13D+00 RLast= 3.05D-02 DXMaxT set to 3.93D-01
 ITU=  1  1  0
 Use linear search instead of GDIIS.
     Eigenvalues ---    0.01990   0.01991   0.01993   0.01993   0.02048
     Eigenvalues ---    0.02138   0.02177   0.02382   0.16000   0.16000
     Eigenvalues ---    0.16016   0.16145   0.18495   0.22000   0.24723
     Eigenvalues ---    0.25000   0.30291   0.33789   0.33933   0.34076
     Eigenvalues ---    0.35504   0.40930   0.42240   0.44419   0.46121
     Eigenvalues ---    0.50261   0.52381
 RFO step:  Lambda=-8.00539575D-06 EMin= 1.99021689D-02
 Quartic linear search produced a step of  0.16393.
 Iteration  1 RMS(Cart)=  0.00084855 RMS(Int)=  0.00000047
 Iteration  2 RMS(Cart)=  0.00000067 RMS(Int)=  0.00000015
 ClnCor:  largest displacement from symmetrization is 6.49D-12 for atom     9.
 Variable       Old X    -DE/DX   Delta X   Delta X   Delta X     New X
                                 (Linear)    (Quad)   (Total)
    R1        2.63809   0.00054  -0.00079   0.00188   0.00109   2.63918
    R2        2.59489   0.00004   0.00105  -0.00073   0.00031   2.59521
    R3        2.04629   0.00035   0.00024   0.00080   0.00104   2.04733
    R4        2.62760  -0.00005  -0.00013  -0.00025  -0.00039   2.62721
    R5        2.04603   0.00017  -0.00002   0.00037   0.00034   2.04637
    R6        2.62760  -0.00005  -0.00013  -0.00025  -0.00039   2.62721
    R7        3.29148   0.00128   0.00288   0.00241   0.00529   3.29677
    R8        2.63809   0.00054  -0.00079   0.00188   0.00109   2.63918
    R9        2.04603   0.00017  -0.00002   0.00037   0.00035   2.04637
   R10        2.59490   0.00004   0.00105  -0.00073   0.00031   2.59521
   R11        2.04629   0.00035   0.00024   0.00079   0.00104   2.04733
    A1        2.04579   0.00013   0.00105   0.00015   0.00120   2.04698
    A2        2.10329  -0.00000  -0.00117   0.00085  -0.00032   2.10297
    A3        2.13411  -0.00013   0.00012  -0.00099  -0.00088   2.13323
    A4        2.08223  -0.00034  -0.00093  -0.00096  -0.00189   2.08034
    A5        2.11019   0.00007   0.00010   0.00012   0.00022   2.11041
    A6        2.09076   0.00027   0.00083   0.00084   0.00167   2.09243
    A7        2.12508   0.00048   0.00132   0.00119   0.00252   2.12760
    A8        2.07905  -0.00024  -0.00066  -0.00060  -0.00126   2.07779
    A9        2.07905  -0.00024  -0.00066  -0.00060  -0.00126   2.07779
   A10        2.08223  -0.00034  -0.00094  -0.00096  -0.00189   2.08034
   A11        2.09076   0.00027   0.00083   0.00084   0.00167   2.09243
   A12        2.11019   0.00007   0.00010   0.00012   0.00022   2.11041
   A13        2.04579   0.00013   0.00105   0.00015   0.00120   2.04698
   A14        2.10329  -0.00000  -0.00117   0.00085  -0.00032   2.10297
   A15        2.13411  -0.00013   0.00011  -0.00099  -0.00088   2.13323
   A16        2.18525  -0.00007  -0.00156   0.00043  -0.00113   2.18412
    D1        0.00000   0.00000   0.00000   0.00000   0.00000   0.00000
    D2        3.14159   0.00000   0.00000  -0.00000   0.00000   3.14159
    D3        3.14159   0.00000   0.00000   0.00000   0.00000   3.14159
    D4        0.00000   0.00000   0.00000   0.00000   0.00000   0.00000
    D5        0.00000   0.00000   0.00000  -0.00000   0.00000   0.00000
    D6        3.14159  -0.00000   0.00000  -0.00000   0.00000   3.14159
    D7        0.00000  -0.00000   0.00000  -0.00000   0.00000   0.00000
    D8        3.14159  -0.00000   0.00000  -0.00000   0.00000   3.14159
    D9        3.14159   0.00000   0.00000   0.00000   0.00000   3.14159
   D10        0.00000   0.00000   0.00000   0.00000   0.00000   0.00000
   D11        0.00000  -0.00000   0.00000  -0.00000   0.00000   0.00000
   D12        3.14159  -0.00000   0.00000  -0.00000   0.00000   3.14159
   D13        3.14159  -0.00000   0.00000  -0.00000   0.00000   3.14159
   D14        0.00000  -0.00000   0.00000  -0.00000   0.00000   0.00000
   D15        0.00000   0.00000   0.00000   0.00000   0.00000   0.00000
   D16        3.14159   0.00000   0.00000   0.00000   0.00000   3.14159
   D17        3.14159   0.00000   0.00000   0.00000   0.00000   3.14159
   D18        0.00000   0.00000   0.00000   0.00000   0.00000   0.00000
   D19        0.00000  -0.00000   0.00000   0.00000   0.00000   0.00000
   D20        3.14159  -0.00000   0.00000   0.00000   0.00000   3.14159
         Item               Value     Threshold  Converged?
 Maximum Force            0.001284     0.000450     NO 
 RMS     Force            0.000266     0.000300     YES
 Maximum Displacement     0.002744     0.001800     NO 
 RMS     Displacement     0.000848     0.001200     YES
 Predicted change in Energy=-6.724151D-06
 GradGradGradGradGradGradGradGradGradGradGradGradGradGradGradGradGradGrad

                          Input orientation:                          
 ---------------------------------------------------------------------
 Center     Atomic      Atomic             Coordinates (Angstroms)
 Number     Number       Type             X           Y           Z
 ---------------------------------------------------------------------
      1          6           0       -3.206953    0.202491   -0.000000
      2          6           0       -2.015237    0.930705   -0.000000
      3          6           0       -0.803757    0.248694   -0.000000
      4          6           0       -0.742515   -1.140216   -0.000000
      5          6           0       -1.930504   -1.874493   -0.000000
      6          6           0       -3.107711   -1.167243   -0.000000
      7          1           0       -4.162818    0.712468   -0.000000
      8          1           0       -2.024876    2.013557   -0.000000
      9         17           0        0.682566    1.162142   -0.000000
     10          1           0        0.219219   -1.637940   -0.000000
     11          1           0       -1.907283   -2.957644   -0.000000
 ---------------------------------------------------------------------
                    Distance matrix (angstroms):
                    1          2          3          4          5
     1  C    0.000000
     2  C    1.396596   0.000000
     3  C    2.403639   1.390260   0.000000
     4  C    2.806478   2.430748   1.390260   0.000000
     5  C    2.437865   2.806478   2.403639   1.396596   0.000000
     6  C    1.373324   2.365351   2.704271   2.365351   1.373324
     7  H    1.083400   2.158641   3.390926   3.889848   3.416957
     8  H    2.162698   1.082895   2.146129   3.404517   3.889195
     9  Cl   4.006156   2.707712   1.744575   2.707712   4.006155
    10  H    3.889195   3.404517   2.146129   1.082895   2.162698
    11  H    3.416957   3.889847   3.390925   2.158641   1.083400
                    6          7          8          9         10
     6  C    0.000000
     7  H    2.155589   0.000000
     8  H    3.360062   2.502724   0.000000
     9  Cl   4.448846   4.866205   2.838159   0.000000
    10  H    3.360062   4.972592   4.285953   2.838159   0.000000
    11  H    2.155589   4.307802   4.972591   4.866205   2.502724
                   11
    11  H    0.000000
 Stoichiometry    C6H4Cl(2)
 Framework group  CS[SG(C6H4Cl)]
 Deg. of freedom    19
 Full point group                 CS      NOp   2
 Largest Abelian subgroup         CS      NOp   2
 Largest concise Abelian subgroup C1      NOp   1
                         Standard orientation:                         
 ---------------------------------------------------------------------
 Center     Atomic      Atomic             Coordinates (Angstroms)
 Number     Number       Type             X           Y           Z
 ---------------------------------------------------------------------
      1          6           0        1.218932    1.633066    0.000000
      2          6           0        1.215374    0.236475   -0.000000
      3          6           0        0.000000   -0.438572   -0.000000
      4          6           0       -1.215374    0.236475    0.000000
      5          6           0       -1.218932    1.633066    0.000000
      6          6           0        0.000000    2.265698    0.000000
      7          1           0        2.153901    2.180414    0.000000
[...]
      7        1          -0.000007424   -0.000026362    0.000000000
      8        1          -0.000026157   -0.000021153    0.000000000
      9       17           0.000159212    0.000097854   -0.000000000
     10        1          -0.000030706   -0.000013775    0.000000000
     11        1          -0.000026885    0.000005211    0.000000000
 -------------------------------------------------------------------
 Cartesian Forces:  Max     0.000412154 RMS     0.000132777
 FormGI is forming the generalized inverse of G from B-inverse, IUseBI=4.

 GradGradGradGradGradGradGradGradGradGradGradGradGradGradGradGradGradGrad
 Berny optimization.
 Internal  Forces:  Max     0.000199926 RMS     0.000065366
 Search for a local minimum.
 Step number   1 out of a maximum of    2
 All quantities printed in internal units (Hartrees-Bohrs-Radians)
 Second derivative matrix not updated -- analytic derivatives used.
 ITU=  0
     Eigenvalues ---    0.01766   0.01773   0.01970   0.02508   0.02625
     Eigenvalues ---    0.03035   0.03229   0.03416   0.10521   0.10752
     Eigenvalues ---    0.11268   0.11969   0.16715   0.17184   0.19375
     Eigenvalues ---    0.19565   0.27180   0.27464   0.36299   0.36423
     Eigenvalues ---    0.36719   0.36809   0.42357   0.43318   0.47640
     Eigenvalues ---    0.49043   0.52606
 Angle between quadratic step and forces=  15.04 degrees.
 Linear search not attempted -- first point.
 Iteration  1 RMS(Cart)=  0.00034517 RMS(Int)=  0.00000012
 Iteration  2 RMS(Cart)=  0.00000018 RMS(Int)=  0.00000000
 ClnCor:  largest displacement from symmetrization is 3.75D-11 for atom     9.
 Variable       Old X    -DE/DX   Delta X   Delta X   Delta X     New X
                                 (Linear)    (Quad)   (Total)
    R1        2.63918   0.00006   0.00000   0.00028   0.00028   2.63946
    R2        2.59521  -0.00012   0.00000  -0.00032  -0.00032   2.59489
    R3        2.04733  -0.00001   0.00000  -0.00003  -0.00003   2.04730
    R4        2.62721  -0.00006   0.00000  -0.00022  -0.00022   2.62699
    R5        2.04637  -0.00002   0.00000  -0.00009  -0.00009   2.04629
    R6        2.62721  -0.00006   0.00000  -0.00022  -0.00022   2.62699
    R7        3.29677   0.00019   0.00000   0.00109   0.00109   3.29786
    R8        2.63918   0.00006   0.00000   0.00028   0.00028   2.63946
    R9        2.04637  -0.00002   0.00000  -0.00009  -0.00009   2.04629
   R10        2.59521  -0.00012   0.00000  -0.00032  -0.00032   2.59489
   R11        2.04733  -0.00001   0.00000  -0.00003  -0.00003   2.04730
    A1        2.04698  -0.00009   0.00000  -0.00049  -0.00049   2.04650
    A2        2.10297   0.00007   0.00000   0.00051   0.00051   2.10348
    A3        2.13323   0.00002   0.00000  -0.00002  -0.00002   2.13321
    A4        2.08034  -0.00008   0.00000  -0.00050  -0.00050   2.07984
    A5        2.11041   0.00001   0.00000   0.00010   0.00010   2.11051
    A6        2.09243   0.00007   0.00000   0.00040   0.00040   2.09283
    A7        2.12760   0.00014   0.00000   0.00094   0.00094   2.12854
    A8        2.07779  -0.00007   0.00000  -0.00047  -0.00047   2.07732
    A9        2.07779  -0.00007   0.00000  -0.00047  -0.00047   2.07732
   A10        2.08034  -0.00008   0.00000  -0.00050  -0.00050   2.07984
   A11        2.09243   0.00007   0.00000   0.00040   0.00040   2.09283
   A12        2.11041   0.00001   0.00000   0.00010   0.00010   2.11051
   A13        2.04698  -0.00009   0.00000  -0.00049  -0.00049   2.04650
   A14        2.10297   0.00007   0.00000   0.00051   0.00051   2.10348
   A15        2.13323   0.00002   0.00000  -0.00002  -0.00002   2.13321
   A16        2.18412   0.00020   0.00000   0.00103   0.00103   2.18515
    D1        0.00000  -0.00000   0.00000   0.00000  -0.00000   0.00000
    D2        3.14159   0.00000   0.00000   0.00000   0.00000   3.14159
    D3        3.14159   0.00000   0.00000  -0.00000   0.00000   3.14159
    D4        0.00000  -0.00000   0.00000   0.00000   0.00000   0.00000
    D5       -0.00000   0.00000   0.00000   0.00000   0.00000   0.00000
    D6        3.14159  -0.00000   0.00000   0.00000   0.00000   3.14159
    D7       -0.00000   0.00000   0.00000  -0.00000   0.00000   0.00000
    D8        3.14159   0.00000   0.00000   0.00000   0.00000   3.14159
    D9        3.14159   0.00000   0.00000  -0.00000   0.00000   3.14159
   D10        0.00000   0.00000   0.00000  -0.00000  -0.00000   0.00000
   D11        0.00000  -0.00000   0.00000   0.00000  -0.00000   0.00000
   D12        3.14159   0.00000   0.00000   0.00000   0.00000   3.14159
   D13        3.14159  -0.00000   0.00000  -0.00000   0.00000   3.14159
   D14        0.00000  -0.00000   0.00000   0.00000   0.00000   0.00000
   D15       -0.00000   0.00000   0.00000  -0.00000   0.00000   0.00000
   D16        3.14159   0.00000   0.00000   0.00000   0.00000   3.14159
   D17        3.14159   0.00000   0.00000  -0.00000   0.00000   3.14159
   D18        0.00000   0.00000   0.00000  -0.00000  -0.00000   0.00000
   D19        0.00000  -0.00000   0.00000  -0.00000  -0.00000   0.00000
   D20        3.14159  -0.00000   0.00000  -0.00000   0.00000   3.14159
         Item               Value     Threshold  Converged?
 Maximum Force            0.000200     0.000450     YES
 RMS     Force            0.000065     0.000300     YES
 Maximum Displacement     0.001135     0.001800     YES
 RMS     Displacement     0.000345     0.001200     YES
 Predicted change in Energy=-5.245663D-07
 Optimization completed.
    -- Stationary point found.
                           ----------------------------
                           !   Optimized Parameters   !
                           ! (Angstroms and Degrees)  !
 --------------------------                            --------------------------
 ! Name  Definition              Value          Derivative Info.                !
 --------------------------------------------------------------------------------
 ! R1    R(1,2)                  1.3966         -DE/DX =    0.0001              !
 ! R2    R(1,6)                  1.3733         -DE/DX =   -0.0001              !
 ! R3    R(1,7)                  1.0834         -DE/DX =    0.0                 !
 ! R4    R(2,3)                  1.3903         -DE/DX =   -0.0001              !
 ! R5    R(2,8)                  1.0829         -DE/DX =    0.0                 !
 ! R6    R(3,4)                  1.3903         -DE/DX =   -0.0001              !
 ! R7    R(3,9)                  1.7446         -DE/DX =    0.0002              !
 ! R8    R(4,5)                  1.3966         -DE/DX =    0.0001              !
 ! R9    R(4,10)                 1.0829         -DE/DX =    0.0                 !
 ! R10   R(5,6)                  1.3733         -DE/DX =   -0.0001              !
 ! R11   R(5,11)                 1.0834         -DE/DX =    0.0                 !
 ! A1    A(2,1,6)              117.2836         -DE/DX =   -0.0001              !
 ! A2    A(2,1,7)              120.4914         -DE/DX =    0.0001              !
 ! A3    A(6,1,7)              122.225          -DE/DX =    0.0                 !
 ! A4    A(1,2,3)              119.1948         -DE/DX =   -0.0001              !
 ! A5    A(1,2,8)              120.9176         -DE/DX =    0.0                 !
 ! A6    A(3,2,8)              119.8876         -DE/DX =    0.0001              !
 ! A7    A(2,3,4)              121.9024         -DE/DX =    0.0001              !
 ! A8    A(2,3,9)              119.0488         -DE/DX =   -0.0001              !
 ! A9    A(4,3,9)              119.0488         -DE/DX =   -0.0001              !
 ! A10   A(3,4,5)              119.1948         -DE/DX =   -0.0001              !
 ! A11   A(3,4,10)             119.8876         -DE/DX =    0.0001              !
 ! A12   A(5,4,10)             120.9176         -DE/DX =    0.0                 !
 ! A13   A(4,5,6)              117.2836         -DE/DX =   -0.0001              !
 ! A14   A(4,5,11)             120.4914         -DE/DX =    0.0001              !
 ! A15   A(6,5,11)             122.225          -DE/DX =    0.0                 !
 ! A16   A(1,6,5)              125.1409         -DE/DX =    0.0002              !
 ! D1    D(6,1,2,3)              0.0            -DE/DX =    0.0                 !
 ! D2    D(6,1,2,8)            180.0            -DE/DX =    0.0                 !
 ! D3    D(7,1,2,3)            180.0            -DE/DX =    0.0                 !
 ! D4    D(7,1,2,8)              0.0            -DE/DX =    0.0                 !
 ! D5    D(2,1,6,5)              0.0            -DE/DX =    0.0                 !
 ! D6    D(7,1,6,5)            180.0            -DE/DX =    0.0                 !
 ! D7    D(1,2,3,4)              0.0            -DE/DX =    0.0                 !
 ! D8    D(1,2,3,9)            180.0            -DE/DX =    0.0                 !
 ! D9    D(8,2,3,4)            180.0            -DE/DX =    0.0                 !
 ! D10   D(8,2,3,9)              0.0            -DE/DX =    0.0                 !
 ! D11   D(2,3,4,5)              0.0            -DE/DX =    0.0                 !
 ! D12   D(2,3,4,10)           180.0            -DE/DX =    0.0                 !
 ! D13   D(9,3,4,5)            180.0            -DE/DX =    0.0                 !
 ! D14   D(9,3,4,10)             0.0            -DE/DX =    0.0                 !
 ! D15   D(3,4,5,6)              0.0            -DE/DX =    0.0                 !
 ! D16   D(3,4,5,11)           180.0            -DE/DX =    0.0                 !
 ! D17   D(10,4,5,6)           180.0            -DE/DX =    0.0                 !
 ! D18   D(10,4,5,11)            0.0            -DE/DX =    0.0                 !
 ! D19   D(4,5,6,1)              0.0            -DE/DX =    0.0                 !
 ! D20   D(11,5,6,1)           180.0            -DE/DX =    0.0                 !
 --------------------------------------------------------------------------------
 GradGradGradGradGradGradGradGradGradGradGradGradGradGradGradGradGradGrad


 ----------------------------------------------------------------------

 Electric dipole moment (input orientation):
 (Debye = 10**-18 statcoulomb cm , SI units = C m)
                  (au)            (Debye)         (10**-30 SI)
   Tot        0.392495D+00      0.997623D+00      0.332771D+01
   x         -0.334394D+00     -0.849944D+00     -0.283511D+01
   y         -0.205508D+00     -0.522349D+00     -0.174237D+01
   z          0.000000D+00      0.000000D+00      0.000000D+00

 Dipole polarizability, Alpha (input orientation).
 (esu units = cm**3 , SI units = C**2 m**2 J**-1)
 Alpha(0;0):
               (au)            (10**-24 esu)      (10**-40 SI)
   iso        0.751206D+02      0.111317D+02      0.123857D+02
   aniso      0.478295D+02      0.708760D+01      0.788602D+01
   xx         0.941486D+02      0.139514D+02      0.155230D+02
   yx         0.764884D+01      0.113344D+01      0.126112D+01
   yy         0.864034D+02      0.128037D+02      0.142460D+02
   zx         0.000000D+00      0.000000D+00      0.000000D+00
   zy         0.000000D+00      0.000000D+00      0.000000D+00
   zz         0.448100D+02      0.664015D+01      0.738817D+01

 ----------------------------------------------------------------------

 Dipole orientation:
     6         -1.83211391          2.98113893          4.96279872
     6         -1.82859326          2.97541029          2.32362275
     6         -0.62604457          1.01867347          1.04796922
     6          0.57650420         -0.93806347          2.32362267
     6          0.58002479         -0.94379201          4.96279856
     6         -0.62604451          1.01867337          6.15830000
     1         -2.75721609          4.48642642          5.99713514
     1         -2.74640688          4.46883813          1.26771635
    17         -0.62604453          1.01867341         -2.24879985
     1          1.49431782         -2.43149131          1.26771618
     1          1.50512696         -2.44907949          5.99713464

 Electric dipole moment (dipole orientation):
 (Debye = 10**-18 statcoulomb cm , SI units = C m)
                  (au)            (Debye)         (10**-30 SI)
   Tot        0.392495D+00      0.997623D+00      0.332771D+01
   x          0.000000D+00      0.000000D+00      0.000000D+00
   y          0.000000D+00      0.000000D+00      0.000000D+00
   z          0.392495D+00      0.997623D+00      0.332771D+01

 Dipole polarizability, Alpha (dipole orientation).
 (esu units = cm**3 , SI units = C**2 m**2 J**-1)
 Alpha(0;0):
               (au)            (10**-24 esu)      (10**-40 SI)
   iso        0.751206D+02      0.111317D+02      0.123857D+02
   aniso      0.478295D+02      0.708760D+01      0.788602D+01
   xx         0.549241D+02      0.813891D+01      0.905576D+01
   yx        -0.164573D+02     -0.243872D+01     -0.271344D+01
   yy         0.715886D+02      0.106083D+02      0.118034D+02
   zx         0.000000D+00      0.000000D+00      0.000000D+00
   zy         0.000000D+00      0.000000D+00      0.000000D+00
   zz         0.988493D+02      0.146480D+02      0.162980D+02

 ----------------------------------------------------------------------
 1\1\GINC-SH03-01N49\Freq\UM062X\6-311++G(d,p)\C6H4Cl1(2)\JLAPIER\09-De
 c-2025\0\\#N Geom=AllCheck Guess=TCheck SCRF=Check GenChk UM062X/6-311
 ++G(d,p) Freq\\Neutral Radical (removed 1) _4\\0,2\C,-3.2069526942,0.2
 024909167,0.\C,-2.0152373938,0.9307050975,0.\C,-0.803757407,0.24869431
 62,0.\C,-0.7425145858,-1.1402160105,0.\C,-1.9305037961,-1.8744930498,0
 .\C,-3.107710843,-1.167242826,0.\H,-4.1628183381,0.7124675667,0.\H,-2.
 0248761355,2.0135567285,0.\Cl,0.6825656789,1.1621415369,0.\H,0.2192188
 154,-1.6379403115,0.\H,-1.9072833008,-2.9576439647,0.\\Version=ES64L-G
 16RevB.01\State=2-A'\HF=-691.1127321\S2=0.762587\S2-1=0.\S2A=0.75007\R
 MSD=3.604e-09\RMSF=1.328e-04\ZeroPoint=0.078511\Thermal=0.0839432\Dipo
 le=-0.3343936,-0.2055078,0.\DipoleDeriv=-0.010929,-0.0735817,0.,-0.019
 0086,-0.0085251,0.,0.,0.,-0.0778832,-0.1520398,-0.0820086,0.,-0.067620
 8,-0.0156767,0.,0.,0.,-0.1371865,0.8275803,0.5426592,0.,0.5426592,0.27
 80892,0.,0.,0.,-0.0033869,-0.1037991,-0.0920449,0.,-0.1064327,-0.06391
 74,0.,0.,0.,-0.1371865,-0.0463289,-0.0010858,0.,-0.0556589,0.0268748,0
 .,0.,0.,-0.0778831,-0.0849846,-0.0389844,0.,-0.0389844,-0.0455093,0.,0
 .,0.,-0.0978813,0.0051303,0.0389779,0.,0.044067,0.0629379,0.,0.,0.,0.1
 574759,0.0782346,-0.0202642,0.,-0.0017894,-0.006194,0.,0.,0.,0.1425307
 ,-0.5996184,-0.3142288,0.,-0.3142288,-0.2814335,0.,0.,0.,-0.0686058,0.
 0021448,0.0367344,0.,0.0182597,0.0698958,0.,0.,0.,0.1425307,0.0846098,
 0.0038269,0.,-0.0012622,-0.0165416,0.,0.,0.,0.1574759\Polar=94.1485551
 ,7.6488449,86.4034077,0.,0.,44.8099733\Quadrupole=0.0071821,3.0382408,
 -3.045423,-2.9933745,0.,0.\PG=CS [SG(C6H4Cl1)]\NImag=0\\0.69600102,-0.
 06645076,0.67355638,0.,0.,0.12641062,-0.27268421,-0.04629981,0.,0.6531
 8922,-0.13493619,-0.17709813,0.,0.00018974,0.75571996,0.,0.,-0.0597321
 4,0.,0.,0.12842262,-0.05982491,-0.04125522,0.,-0.26585875,0.13791133,0
 .,0.56689553,0.02802212,0.07408664,0.,0.05997662,-0.17956892,0.,-0.057
 43162,0.62505008,0.,0.,0.00619747,0.,0.,-0.06468001,0.,0.,0.12661362,-
 0.01386889,-0.03153368,0.,0.03413359,0.02809416,0.,-0.11742736,0.06276
 129,0.,0.73495323,-0.03476121,-0.06411844,0.,0.08652964,-0.02389985,0.
 ,-0.01517342,-0.32800022,0.,-0.04120685,0.67395593,0.,0.,-0.00234014,0
 .,0.,0.00592199,0.,0.,-0.06468002,0.,0.,0.12842262,0.03634717,0.080106
 36,0.,-0.08058228,0.00224296,0.,0.04143134,-0.09252072,0.,-0.26963794,
 -0.04784221,0.,0.62457755,0.03787019,-0.02338374,0.,-0.00098458,0.0025
 9493,0.,-0.02324339,-0.02716961,0.,-0.13647859,-0.18014450,0.,-0.03028
 941,0.74498027,0.,0.,0.00504337,0.,0.,-0.00234014,0.,0.,0.00619747,0.,
 0.,-0.05973213,0.,0.,0.12641058,-0.10577236,0.00551140,0.,0.04509053,-
 0.02382254,0.,-0.02722044,0.04044659,0.,-0.06927087,-0.03305196,0.,-0.
 28401813,0.13363776,0.,0.44325899,0.04339285,-0.35446846,0.,-0.0909525
 5,-0.04047560,0.,0.04044659,-0.06817623,0.,0.03407804,0.07388579,0.,0.
 09575630,-0.17622284,0.,-0.14236814,0.58741929,0.,0.,-0.05334162,0.,0.
 ,0.01345851,0.,0.,-0.00714632,0.,0.,0.01345851,0.,0.,-0.05334160,0.,0.
 ,0.07499812,-0.27924987,0.11724688,0.,-0.01831535,0.01449634,0.,-0.001
 65332,-0.00314096,0.,0.00000986,-0.00062761,0.,0.00136332,-0.00153462,
 0.,0.00310664,0.00300653,0.,0.29484845,0.12262420,-0.11782777,0.,-0.01
 613590,0.01153951,0.,-0.00304277,-0.00033590,0.,-0.00120275,-0.0009953
 1,0.,0.00072140,-0.00548642,0.,0.02560217,-0.01118292,0.,-0.12932882,0
 .12403114,0.,0.,-0.03566731,0.,0.,0.00533074,0.,0.,0.00743941,0.,0.,-0
 .00035272,0.,0.,0.00578187,0.,0.,-0.00068119,0.,0.,0.02339627,0.003545
 79,-0.02647767,0.,-0.05580262,0.00234619,0.,0.00277443,0.02727371,0.,-
 0.00459090,0.00200960,0.,-0.00094899,0.00063215,0.,-0.00365245,-0.0043
 0879,0.,0.00106838,0.00065594,0.,0.05650949,0.00253262,-0.00947519,0.,
 0.00615601,-0.34816110,0.,-0.00374365,-0.01099917,0.,0.00271849,0.0004
 9129,0.,0.00010363,0.00105165,0.,-0.00288863,-0.00045036,0.,-0.0000506
 6,0.00054655,0.,-0.00427283,0.36639713,0.,0.,0.00415228,0.,0.,-0.03638
 779,0.,0.,0.00286408,0.,0.,0.00577684,0.,0.,-0.00108394,0.,0.,0.007184
 37,0.,0.,-0.00416765,0.,0.,0.02471385,-0.00101713,0.00635753,0.,-0.039
 00202,-0.02580348,0.,-0.13731337,-0.06008113,0.,-0.01400431,-0.0102831
 3,0.,0.00203288,-0.00090550,0.,-0.00077946,-0.00186395,0.,-0.00127705,
 -0.00100990,0.,0.00074622,-0.00043000,0.,0.19017807,0.00063871,-0.0007
 2745,0.,0.00237308,0.00426616,0.,-0.06008113,-0.07647584,0.,-0.0384597
 0,-0.02073156,0.,0.00481332,-0.00377746,0.,-0.00186395,0.00110796,0.,0
 .00004060,-0.00004971,0.,0.00071557,0.00107993,0.,0.09375299,0.0952447
 7,0.,0.,0.00457953,0.,0.,0.00458210,0.,0.,-0.02310920,0.,0.,0.00458210
 ,0.,0.,0.00457953,0.,0.,-0.00109195,0.,0.,-0.00016557,0.,0.,-0.0026846
 1,0.,0.,0.01157826,0.00093997,-0.00085274,0.,0.00135974,-0.00029429,0.
 ,0.00129357,-0.00299390,0.,-0.28508378,0.12223986,0.,-0.01646818,0.012
 66559,0.,-0.00400421,-0.00271053,0.,-0.00007636,0.00006524,0.,0.000289
 63,-0.00012066,0.,0.00112692,-0.00062275,0.,0.29972576,-0.00032422,-0.
 00083730,0.,-0.00100318,-0.00545935,0.,0.02802345,-0.00951831,0.,0.118
 43004,-0.11887989,0.,-0.01634471,0.01053878,0.,-0.00413070,-0.00009860
 ,0.,0.00002573,0.00005019,0.,0.00146998,-0.00039353,0.,0.00052282,0.00
 069923,0.,-0.12741195,0.12318081,0.,0.,-0.00108394,0.,0.,0.00577684,0.
 ,0.,0.00286408,0.,0.,-0.03638779,0.,0.,0.00415228,0.,0.,0.00718437,0.,
 0.,-0.00061843,0.,0.,0.00025098,0.,0.,-0.00268461,0.,0.,0.02471386,-0.
 00441656,0.00364773,0.,-0.00152785,-0.00042422,0.,-0.00309670,-0.00231
 199,0.,0.00478738,-0.02783270,0.,-0.05409676,0.00863040,0.,0.00326175,
 0.02552364,0.,0.00017531,0.00105118,0.,0.00006103,-0.00000432,0.,-0.00
 069075,-0.00130674,0.,0.00089694,0.00074274,0.,0.05464621,0.00139171,0
 .00029346,0.,0.00015092,0.00054239,0.,-0.00241018,0.00110748,0.,0.0027
 9954,-0.01156324,0.,0.00325308,-0.34298107,0.,0.00292799,-0.01133803,0
 .,-0.00013341,-0.00028935,0.,-0.00004383,-0.00008720,0.,-0.00025624,-0
 .00063602,0.,0.00003614,0.00071799,0.,-0.00771571,0.36423358,0.,0.,0.0
 0578187,0.,0.,-0.00035272,0.,0.,0.00743941,0.,0.,0.00533074,0.,0.,-0.0
 3566729,0.,0.,-0.00068119,0.,0.,-0.00029542,0.,0.,-0.00061843,0.,0.,-0
 .00016557,0.,0.,-0.00416765,0.,0.,0.02339624\\0.00016823,0.00011739,0.
 ,-0.00021212,-0.00012218,0.,0.00041215,0.00025334,0.,-0.00020484,-0.00
 013412,0.,0.00018068,0.00009707,0.,-0.00027607,-0.00016972,0.,0.000007
 42,0.00002636,0.,0.00002616,0.00002115,0.,-0.00015921,-0.00009785,0.,0
 .00003071,0.00001378,0.,0.00002689,-0.00000521,0.\\\@


 THE RED LIGHT IS ALWAYS LONGER THAN THE GREEN LIGHT.

                     -- PETER'S THEORY OF RELATIVITY
 Job cpu time:       0 days  0 hours 27 minutes 40.1 seconds.
 Elapsed time:       0 days  0 hours  6 minutes 57.6 seconds.
 File lengths (MBytes):  RWF=    124 Int=      0 D2E=      0 Chk=     34 Scr=      1
 Normal termination of Gaussian 16 at Tue Dec  9 14:13:52 2025.
