 Entering Gaussian System, Link 0=g16
 Initial command:
 /share/software/user/restricted/gaussian/g16.B01/l1.exe "/home/users/jlapier/Chloroaromatics/Gau-228570.inp" -scrdir="/home/users/jlapier/Chloroaromatics/"
 Entering Link 1 = /share/software/user/restricted/gaussian/g16.B01/l1.exe PID=    228571.
  
 Copyright (c) 1988-2017, Gaussian, Inc.  All Rights Reserved.
  
 This is part of the Gaussian(R) 16 program.  It is based on
 the Gaussian(R) 09 system (copyright 2009, Gaussian, Inc.),
 the Gaussian(R) 03 system (copyright 2003, Gaussian, Inc.),
 the Gaussian(R) 98 system (copyright 1998, Gaussian, Inc.),
 the Gaussian(R) 94 system (copyright 1995, Gaussian, Inc.),
 the Gaussian 92(TM) system (copyright 1992, Gaussian, Inc.),
 the Gaussian 90(TM) system (copyright 1990, Gaussian, Inc.),
 the Gaussian 88(TM) system (copyright 1988, Gaussian, Inc.),
 the Gaussian 86(TM) system (copyright 1986, Carnegie Mellon
 University), and the Gaussian 82(TM) system (copyright 1983,
 Carnegie Mellon University). Gaussian is a federally registered
 trademark of Gaussian, Inc.
  
 This software contains proprietary and confidential information,
 including trade secrets, belonging to Gaussian, Inc.
  
 This software is provided under written license and may be
 used, copied, transmitted, or stored only in accord with that
 written license.
  
 The following legend is applicable only to US Government
 contracts under FAR:
  
                    RESTRICTED RIGHTS LEGEND
  
 Use, reproduction and disclosure by the US Government is
 subject to restrictions as set forth in subparagraphs (a)
 and (c) of the Commercial Computer Software - Restricted
 Rights clause in FAR 52.227-19.
  
 Gaussian, Inc.
 340 Quinnipiac St., Bldg. 40, Wallingford CT 06492
  
  
 ---------------------------------------------------------------
 Warning -- This program may not be used in any manner that
 competes with the business of Gaussian, Inc. or will provide
 assistance to any competitor of Gaussian, Inc.  The licensee
 of this program is prohibited from giving any competitor of
 Gaussian, Inc. access to this program.  By using this program,
 the user acknowledges that Gaussian, Inc. is engaged in the
 business of creating and licensing software in the field of
 computational chemistry and represents and warrants to the
 licensee that it is not a competitor of Gaussian, Inc. and that
 it will not use this program in any manner prohibited above.
 ---------------------------------------------------------------
  

 Cite this work as:
 Gaussian 16, Revision B.01,
 M. J. Frisch, G. W. Trucks, H. B. Schlegel, G. E. Scuseria, 
 M. A. Robb, J. R. Cheeseman, G. Scalmani, V. Barone, 
 G. A. Petersson, H. Nakatsuji, X. Li, M. Caricato, A. V. Marenich, 
 J. Bloino, B. G. Janesko, R. Gomperts, B. Mennucci, H. P. Hratchian, 
 J. V. Ortiz, A. F. Izmaylov, J. L. Sonnenberg, D. Williams-Young, 
 F. Ding, F. Lipparini, F. Egidi, J. Goings, B. Peng, A. Petrone, 
 T. Henderson, D. Ranasinghe, V. G. Zakrzewski, J. Gao, N. Rega, 
 G. Zheng, W. Liang, M. Hada, M. Ehara, K. Toyota, R. Fukuda, 
 J. Hasegawa, M. Ishida, T. Nakajima, Y. Honda, O. Kitao, H. Nakai, 
 T. Vreven, K. Throssell, J. A. Montgomery, Jr., J. E. Peralta, 
 F. Ogliaro, M. J. Bearpark, J. J. Heyd, E. N. Brothers, K. N. Kudin, 
 V. N. Staroverov, T. A. Keith, R. Kobayashi, J. Normand, 
 K. Raghavachari, A. P. Rendell, J. C. Burant, S. S. Iyengar, 
 J. Tomasi, M. Cossi, J. M. Millam, M. Klene, C. Adamo, R. Cammi, 
 J. W. Ochterski, R. L. Martin, K. Morokuma, O. Farkas, 
 J. B. Foresman, and D. J. Fox, Gaussian, Inc., Wallingford CT, 2016.
 
 ******************************************
 Gaussian 16:  ES64L-G16RevB.01 20-Dec-2017
                11-Dec-2025 
 ******************************************
 %mem=8GB
 %nprocshare=4
 Will use up to    4 processors via shared memory.
 %oldchk=geometry_chks/benzene.chk
 %chk=frequency_chks/benzene_Freq.chk
 Copying data from "geometry_chks/benzene.chk" to current chk file "frequency_chks/benzene_Freq.chk"
 IOpt=  2 FromEx=T IUOpen= 4 IOptOp= 5 NList=   0 IFRang= 0 IUIn= 4 IUOut= 2.
 -------------------------------------------------------
 # opt freq 6-311++g(d,p) guess=read geom=allcheck m062x
 -------------------------------------------------------
 1/18=20,19=15,26=3,29=7,38=1/1,3;
 2/9=110,12=2,40=1/2;
 3/5=4,6=6,7=1111,11=2,14=-4,25=1,30=1,71=1,74=-55,116=-2/1,2,3;
 4/5=1/1;
 5/5=2,38=6/2;
 6/7=2,8=2,9=2,10=2,28=1/1;
 7//1,2,3,16;
 1/18=20,19=15,26=3/3(2);
 2/9=110/2;
 99//99;
 2/9=110/2;
 3/5=4,6=6,7=1111,11=2,14=-2,25=1,30=1,71=1,74=-55/1,2,3;
 4/5=5,16=3,69=1/1;
 5/5=2,38=5/2;
 7//1,2,3,16;
 1/18=20,19=15,26=3/3(-5);
 2/9=110/2;
 6/7=2,8=2,9=2,10=2,19=2,28=1/1;
 99/9=1/99;
 Structure from the checkpoint file:  "frequency_chks/benzene_Freq.chk"
 -------
 Benzene
 -------
 Charge =  0 Multiplicity = 1
 Redundant internal coordinates found in file.  (old form).
 C,0,-3.1996981636,0.1941898529,0.
 C,0,-2.0111429116,0.9246305919,0.
 C,0,-0.7842923031,0.2605348399,0.
 C,0,-0.7459861587,-1.1339894526,0.
 C,0,-1.9345241816,-1.8644199143,0.
 C,0,-3.1613751256,-1.2003456767,0.
 H,0,-4.0982310745,-1.7761200998,0.
 H,0,-4.1672494021,0.7179153371,0.
 H,0,-2.0413396417,2.0240988298,0.
 H,0,0.1525217582,0.8362655491,0.
 H,0,0.2209535828,-1.6573936674,0.
 H,0,-1.9043363787,-2.96319619,0.
 Recover connectivity data from disk.

 GradGradGradGradGradGradGradGradGradGradGradGradGradGradGradGradGradGrad
 Berny optimization.
 Initialization pass.
                           ----------------------------
                           !    Initial Parameters    !
                           ! (Angstroms and Degrees)  !
 --------------------------                            --------------------------
 ! Name  Definition              Value          Derivative Info.                !
 --------------------------------------------------------------------------------
 ! R1    R(1,2)                  1.3951         estimate D2E/DX2                !
 ! R2    R(1,6)                  1.3951         estimate D2E/DX2                !
 ! R3    R(1,8)                  1.1002         estimate D2E/DX2                !
 ! R4    R(2,3)                  1.3951         estimate D2E/DX2                !
 ! R5    R(2,9)                  1.0999         estimate D2E/DX2                !
 ! R6    R(3,4)                  1.3951         estimate D2E/DX2                !
 ! R7    R(3,10)                 1.0996         estimate D2E/DX2                !
 ! R8    R(4,5)                  1.395          estimate D2E/DX2                !
 ! R9    R(4,11)                 1.0995         estimate D2E/DX2                !
 ! R10   R(5,6)                  1.395          estimate D2E/DX2                !
 ! R11   R(5,12)                 1.0992         estimate D2E/DX2                !
 ! R12   R(6,7)                  1.0996         estimate D2E/DX2                !
 ! A1    A(2,1,6)              119.9992         estimate D2E/DX2                !
 ! A2    A(2,1,8)              120.0005         estimate D2E/DX2                !
 ! A3    A(6,1,8)              120.0004         estimate D2E/DX2                !
 ! A4    A(1,2,3)              120.0            estimate D2E/DX2                !
 ! A5    A(1,2,9)              120.0001         estimate D2E/DX2                !
 ! A6    A(3,2,9)              120.0            estimate D2E/DX2                !
 ! A7    A(2,3,4)              120.0002         estimate D2E/DX2                !
 ! A8    A(2,3,10)             119.9999         estimate D2E/DX2                !
 ! A9    A(4,3,10)             119.9999         estimate D2E/DX2                !
 ! A10   A(3,4,5)              119.9998         estimate D2E/DX2                !
 ! A11   A(3,4,11)             120.0001         estimate D2E/DX2                !
 ! A12   A(5,4,11)             120.0            estimate D2E/DX2                !
 ! A13   A(4,5,6)              120.0007         estimate D2E/DX2                !
 ! A14   A(4,5,12)             119.9996         estimate D2E/DX2                !
 ! A15   A(6,5,12)             119.9997         estimate D2E/DX2                !
 ! A16   A(1,6,5)              120.0001         estimate D2E/DX2                !
 ! A17   A(1,6,7)              120.0            estimate D2E/DX2                !
 ! A18   A(5,6,7)              119.9999         estimate D2E/DX2                !
 ! D1    D(6,1,2,3)              0.0            estimate D2E/DX2                !
 ! D2    D(6,1,2,9)            180.0            estimate D2E/DX2                !
 ! D3    D(8,1,2,3)            180.0            estimate D2E/DX2                !
 ! D4    D(8,1,2,9)              0.0            estimate D2E/DX2                !
 ! D5    D(2,1,6,5)              0.0            estimate D2E/DX2                !
 ! D6    D(2,1,6,7)            180.0            estimate D2E/DX2                !
 ! D7    D(8,1,6,5)            180.0            estimate D2E/DX2                !
 ! D8    D(8,1,6,7)              0.0            estimate D2E/DX2                !
 ! D9    D(1,2,3,4)              0.0            estimate D2E/DX2                !
 ! D10   D(1,2,3,10)           180.0            estimate D2E/DX2                !
 ! D11   D(9,2,3,4)            180.0            estimate D2E/DX2                !
 ! D12   D(9,2,3,10)             0.0            estimate D2E/DX2                !
 ! D13   D(2,3,4,5)              0.0            estimate D2E/DX2                !
 ! D14   D(2,3,4,11)           180.0            estimate D2E/DX2                !
 ! D15   D(10,3,4,5)           180.0            estimate D2E/DX2                !
 ! D16   D(10,3,4,11)            0.0            estimate D2E/DX2                !
 ! D17   D(3,4,5,6)              0.0            estimate D2E/DX2                !
 ! D18   D(3,4,5,12)           180.0            estimate D2E/DX2                !
 ! D19   D(11,4,5,6)           180.0            estimate D2E/DX2                !
 ! D20   D(11,4,5,12)            0.0            estimate D2E/DX2                !
 ! D21   D(4,5,6,1)              0.0            estimate D2E/DX2                !
 ! D22   D(4,5,6,7)            180.0            estimate D2E/DX2                !
 ! D23   D(12,5,6,1)           180.0            estimate D2E/DX2                !
 ! D24   D(12,5,6,7)             0.0            estimate D2E/DX2                !
 --------------------------------------------------------------------------------
 Trust Radius=3.00D-01 FncErr=1.00D-07 GrdErr=1.00D-06 EigMax=2.50D+02 EigMin=1.00D-04
 Number of steps in this run=     64 maximum allowed number of steps=    100.
 GradGradGradGradGradGradGradGradGradGradGradGradGradGradGradGradGradGrad

                          Input orientation:                          
 ---------------------------------------------------------------------
 Center     Atomic      Atomic             Coordinates (Angstroms)
 Number     Number       Type             X           Y           Z
 ---------------------------------------------------------------------
      1          6           0       -3.199698    0.194190   -0.000000
      2          6           0       -2.011143    0.924631   -0.000000
      3          6           0       -0.784292    0.260535    0.000000
      4          6           0       -0.745986   -1.133989    0.000000
      5          6           0       -1.934524   -1.864420    0.000000
      6          6           0       -3.161375   -1.200346   -0.000000
      7          1           0       -4.098231   -1.776120   -0.000000
      8          1           0       -4.167249    0.717915   -0.000000
      9          1           0       -2.041340    2.024099   -0.000000
     10          1           0        0.152522    0.836266    0.000000
     11          1           0        0.220954   -1.657394    0.000000
     12          1           0       -1.904336   -2.963196    0.000000
 ---------------------------------------------------------------------
                    Distance matrix (angstroms):
                    1          2          3          4          5
     1  C    0.000000
     2  C    1.395065   0.000000
     3  C    2.416317   1.395058   0.000000
     4  C    2.790119   2.416307   1.395050   0.000000
     5  C    2.416307   2.790103   2.416292   1.395045   0.000000
     6  C    1.395062   2.416311   2.790107   2.416300   1.395048
     7  H    2.165521   3.413208   3.889750   3.413192   2.165508
     8  H    1.100202   2.165993   3.413736   3.890320   3.413725
     9  H    2.165724   1.099883   2.165716   3.413424   3.889986
    10  H    3.413157   2.165468   1.099585   2.165461   3.413131
    11  H    3.889630   3.413078   2.165403   1.099511   2.165397
    12  H    3.412777   3.889294   3.412761   2.165126   1.099191
                    6          7          8          9         10
     6  C    0.000000
     7  H    1.099643   0.000000
     8  H    2.165989   2.494990   0.000000
     9  H    3.413433   4.321165   2.495117   0.000000
    10  H    3.889691   4.989334   4.321392   2.494790   0.000000
    11  H    3.413069   4.320816   4.989831   4.321037   2.494598
    12  H    2.165130   2.494459   4.321037   4.989176   4.320483
                   11         12
    11  H    0.000000
    12  H    2.494389   0.000000
 Stoichiometry    C6H6
 Framework group  CS[SG(C6H6)]
 Deg. of freedom    21
 Full point group                 CS      NOp   2
 Largest Abelian subgroup         CS      NOp   2
 Largest concise Abelian subgroup C1      NOp   1
                         Standard orientation:                         
 ---------------------------------------------------------------------
 Center     Atomic      Atomic             Coordinates (Angstroms)
 Number     Number       Type             X           Y           Z
 ---------------------------------------------------------------------
      1          6           0        1.208156    0.697491    0.000000
      2          6           0        0.000000    1.395033    0.000000
      3          6           0       -1.208160    0.697513   -0.000000
      4          6           0       -1.208175   -0.697537   -0.000000
      5          6           0       -0.000036   -1.395070   -0.000000
      6          6           0        1.208125   -0.697571    0.000000
      7          1           0        2.160432   -1.247414    0.000000
      8          1           0        2.160968    1.247576    0.000000
      9          1           0        0.000007    2.494916    0.000000
     10          1           0       -2.160424    1.247313   -0.000000
     11          1           0       -2.160384   -1.247285   -0.000000
     12          1           0       -0.000054   -2.494261   -0.000000
 ---------------------------------------------------------------------
 Rotational constants (GHZ):           5.6862290           5.6860086           2.8430594
 Standard basis: 6-311++G(d,p) (5D, 7F)
 There are   138 symmetry adapted cartesian basis functions of A'  symmetry.
 There are    42 symmetry adapted cartesian basis functions of A"  symmetry.
 There are   132 symmetry adapted basis functions of A'  symmetry.
 There are    42 symmetry adapted basis functions of A"  symmetry.
   174 basis functions,   270 primitive gaussians,   180 cartesian basis functions
    21 alpha electrons       21 beta electrons
       nuclear repulsion energy       203.0257545140 Hartrees.
 NAtoms=   12 NActive=   12 NUniq=   12 SFac= 1.00D+00 NAtFMM=   60 NAOKFM=F Big=F
 Integral buffers will be    131072 words long.
 Raffenetti 2 integral format.
 Two-electron integral symmetry is turned on.
 One-electron integrals computed using PRISM.
 NBasis=   174 RedAO= T EigKep=  1.06D-06  NBF=   132    42
 NBsUse=   174 1.00D-06 EigRej= -1.00D+00 NBFU=   132    42
 Initial guess from the checkpoint file:  "frequency_chks/benzene_Freq.chk"
 B after Tr=    -0.000000    0.000000    0.000000
         Rot=    1.000000    0.000000   -0.000000    0.000000 Ang=   0.00 deg.
 Initial guess orbital symmetries:
       Occupied  (A') (A') (A') (A') (A') (A') (A') (A') (A') (A')
                 (A") (A') (A') (A") (A") (A") (A") (A") (A') (A')
                 (A')
       Virtual   (A') (A') (A') (A') (A') (A') (A') (A') (A') (A')
                 (A') (A') (A') (A') (A') (A') (A') (A') (A') (A')
                 (A') (A') (A') (A') (A') (A') (A') (A') (A') (A')
                 (A') (A') (A') (A') (A') (A') (A') (A') (A') (A')
                 (A') (A') (A') (A') (A') (A') (A') (A') (A') (A')
                 (A') (A') (A') (A') (A') (A') (A') (A') (A') (A')
                 (A') (A') (A') (A') (A') (A') (A') (A') (A') (A')
                 (A') (A') (A') (A') (A') (A') (A') (A') (A') (A')
                 (A') (A') (A') (A') (A') (A') (A') (A') (A') (A')
                 (A') (A') (A') (A') (A') (A') (A') (A') (A') (A')
                 (A') (A') (A') (A') (A') (A') (A') (A') (A') (A')
                 (A') (A') (A') (A') (A') (A') (A') (A") (A") (A")
                 (A") (A") (A") (A") (A") (A") (A") (A") (A") (A")
                 (A") (A") (A") (A") (A") (A") (A") (A") (A") (A")
                 (A") (A") (A") (A") (A") (A") (A") (A") (A") (A")
                 (A") (A") (A")
 Keep R1 ints in memory in symmetry-blocked form, NReq=178178715.
 Requested convergence on RMS density matrix=1.00D-08 within 128 cycles.
 Requested convergence on MAX density matrix=1.00D-06.
 Requested convergence on             energy=1.00D-06.
 No special actions if energy rises.
 SCF Done:  E(RM062X) =  -232.197367151     A.U. after   17 cycles
            NFock= 17  Conv=0.77D-08     -V/T= 2.0050

 **********************************************************************

            Population analysis using the SCF Density.

 **********************************************************************

 Orbital symmetries:
       Occupied  (A') (A') (A') (A') (A') (A') (A') (A') (A') (A')
                 (A') (A') (A') (A') (A') (A') (A") (A') (A') (A")
                 (A")
       Virtual   (A') (A') (A') (A") (A") (A') (A') (A') (A") (A')
                 (A") (A") (A') (A') (A') (A') (A') (A') (A") (A")
                 (A") (A') (A') (A') (A') (A') (A') (A') (A") (A')
                 (A') (A') (A') (A') (A') (A') (A') (A') (A') (A')
                 (A') (A') (A') (A') (A') (A") (A') (A') (A') (A')
                 (A') (A') (A") (A") (A') (A") (A") (A") (A') (A')
                 (A') (A') (A') (A') (A') (A') (A') (A') (A') (A')
                 (A') (A') (A") (A') (A') (A") (A") (A") (A") (A")
                 (A') (A') (A') (A') (A') (A') (A") (A") (A") (A')
                 (A') (A') (A') (A") (A") (A") (A') (A') (A') (A")
                 (A") (A') (A') (A') (A') (A') (A') (A") (A") (A")
                 (A") (A') (A') (A') (A') (A') (A') (A') (A') (A')
                 (A") (A') (A') (A') (A') (A') (A") (A") (A') (A")
                 (A") (A') (A') (A") (A') (A') (A') (A') (A') (A')
                 (A') (A') (A') (A') (A') (A') (A') (A') (A') (A')
                 (A') (A') (A')
 The electronic state is 1-A'.
 Alpha  occ. eigenvalues --  -10.54862 -10.54827 -10.54826 -10.54749 -10.54747
 Alpha  occ. eigenvalues --  -10.54709  -0.96087  -0.84334  -0.84332  -0.68547
 Alpha  occ. eigenvalues --   -0.68544  -0.59933  -0.53085  -0.51523  -0.48834
 Alpha  occ. eigenvalues --   -0.48831  -0.44004  -0.40347  -0.40344  -0.30944
 Alpha  occ. eigenvalues --   -0.30943
 Alpha virt. eigenvalues --   -0.00054   0.01286   0.01287   0.01704   0.01704
 Alpha virt. eigenvalues --    0.03339   0.03339   0.06091   0.07202   0.09070
 Alpha virt. eigenvalues --    0.09733   0.09734   0.10393   0.12815   0.12816
 Alpha virt. eigenvalues --    0.13091   0.13491   0.13491   0.14445   0.14445
 Alpha virt. eigenvalues --    0.14883   0.16085   0.16085   0.16332   0.16333
 Alpha virt. eigenvalues --    0.16650   0.19598   0.19599   0.22800   0.22853
 Alpha virt. eigenvalues --    0.22854   0.24340   0.25557   0.27649   0.30195
 Alpha virt. eigenvalues --    0.30200   0.31900   0.31902   0.34031   0.38478
 Alpha virt. eigenvalues --    0.38481   0.38770   0.38771   0.47908   0.49492
 Alpha virt. eigenvalues --    0.56067   0.58110   0.58388   0.58391   0.59879
 Alpha virt. eigenvalues --    0.59882   0.60002   0.60778   0.60778   0.64481
 Alpha virt. eigenvalues --    0.65625   0.65626   0.71602   0.76784   0.76787
 Alpha virt. eigenvalues --    0.77291   0.77292   0.81612   0.86039   0.86810
 Alpha virt. eigenvalues --    0.86810   0.91046   0.91615   0.91615   0.92280
 Alpha virt. eigenvalues --    0.94142   0.94146   0.99089   1.04778   1.04785
 Alpha virt. eigenvalues --    1.06421   1.13341   1.13342   1.19546   1.19546
 Alpha virt. eigenvalues --    1.33773   1.34557   1.49915   1.55442   1.55447
 Alpha virt. eigenvalues --    1.55857   1.61037   1.61097   1.61102   1.67913
 Alpha virt. eigenvalues --    1.67913   1.69792   1.69796   1.74094   1.79803
 Alpha virt. eigenvalues --    1.79816   1.84954   1.84957   1.87106   1.96337
 Alpha virt. eigenvalues --    1.96337   1.97648   1.97649   2.00324   2.01221
 Alpha virt. eigenvalues --    2.04892   2.04893   2.09728   2.09742   2.33623
 Alpha virt. eigenvalues --    2.36649   2.40875   2.43056   2.43058   2.48174
 Alpha virt. eigenvalues --    2.48199   2.62505   2.62526   2.67717   2.70526
 Alpha virt. eigenvalues --    2.71634   2.74046   2.74054   2.76826   2.76833
 Alpha virt. eigenvalues --    2.81234   2.85101   2.85104   2.90483   2.95163
 Alpha virt. eigenvalues --    2.95164   2.96904   2.96919   3.13681   3.17317
 Alpha virt. eigenvalues --    3.39790   3.39793   3.52470   3.52483   3.53881
 Alpha virt. eigenvalues --    3.67522   4.01220   4.01251   4.10528   4.17444
 Alpha virt. eigenvalues --    4.17462   4.85840  23.64950  24.03582  24.03597
 Alpha virt. eigenvalues --   24.15733  24.15744  24.26399
          Condensed to atoms (all electrons):
               1          2          3          4          5          6
     1  C    6.232577  -0.697765   1.013334  -0.987093   1.012695  -0.697079
     2  C   -0.697765   6.233225  -0.697125   1.012539  -0.987653   1.013842
     3  C    1.013334  -0.697125   6.231806  -0.695529   1.012202  -0.987519
     4  C   -0.987093   1.012539  -0.695529   6.229727  -0.694907   1.011662
     5  C    1.012695  -0.987653   1.012202  -0.694907   6.230736  -0.695818
     6  C   -0.697079   1.013842  -0.987519   1.011662  -0.695818   6.231852
     7  H    0.020019  -0.015723   0.010881  -0.015763   0.019969   0.302071
     8  H    0.301914   0.019997  -0.015706   0.010850  -0.015720   0.019997
     9  H    0.019990   0.302054   0.019950  -0.015725   0.010857  -0.015703
    10  H   -0.015737   0.019989   0.302078   0.020018  -0.015766   0.010889
    11  H    0.010900  -0.015761   0.019995   0.302091   0.019984  -0.015779
    12  H   -0.015769   0.010914  -0.015785   0.019996   0.302215   0.019968
               7          8          9         10         11         12
     1  C    0.020019   0.301914   0.019990  -0.015737   0.010900  -0.015769
     2  C   -0.015723   0.019997   0.302054   0.019989  -0.015761   0.010914
     3  C    0.010881  -0.015706   0.019950   0.302078   0.019995  -0.015785
     4  C   -0.015763   0.010850  -0.015725   0.020018   0.302091   0.019996
     5  C    0.019969  -0.015720   0.010857  -0.015766   0.019984   0.302215
     6  C    0.302071   0.019997  -0.015703   0.010889  -0.015779   0.019968
     7  H    0.474107   0.003191  -0.000563   0.000855  -0.000564   0.003173
     8  H    0.003191   0.474091   0.003191  -0.000561   0.000854  -0.000564
     9  H   -0.000563   0.003191   0.474097   0.003181  -0.000563   0.000855
    10  H    0.000855  -0.000561   0.003181   0.474106   0.003182  -0.000568
    11  H   -0.000564   0.000854  -0.000563   0.003182   0.474131   0.003175
    12  H    0.003173  -0.000564   0.000855  -0.000568   0.003175   0.474131
 Mulliken charges:
               1
     1  C   -0.197987
     2  C   -0.198532
     3  C   -0.198581
     4  C   -0.197865
     5  C   -0.198793
     6  C   -0.198384
     7  H    0.198350
     8  H    0.198465
     9  H    0.198378
    10  H    0.198335
    11  H    0.198355
    12  H    0.198257
 Sum of Mulliken charges =  -0.00000
 Mulliken charges with hydrogens summed into heavy atoms:
               1
     1  C    0.000479
     2  C   -0.000154
     3  C   -0.000246
     4  C    0.000491
     5  C   -0.000535
     6  C   -0.000034
 Electronic spatial extent (au):  <R**2>=            461.0191
 Charge=             -0.0000 electrons
 Dipole moment (field-independent basis, Debye):
    X=             -0.0003    Y=             -0.0004    Z=              0.0000  Tot=              0.0005
 Quadrupole moment (field-independent basis, Debye-Ang):
   XX=            -31.7639   YY=            -31.7637   ZZ=            -40.6741
   XY=             -0.0001   XZ=              0.0000   YZ=              0.0000
 Traceless Quadrupole moment (field-independent basis, Debye-Ang):
   XX=              2.9700   YY=              2.9703   ZZ=             -5.9402
   XY=             -0.0001   XZ=              0.0000   YZ=              0.0000
 Octapole moment (field-independent basis, Debye-Ang**2):
  XXX=             -0.0023  YYY=             -0.0035  ZZZ=             -0.0000  XYY=             -0.0008
  XXY=             -0.0013  XXZ=              0.0000  XZZ=             -0.0019  YZZ=             -0.0029
  YYZ=             -0.0000  XYZ=              0.0000
 Hexadecapole moment (field-independent basis, Debye-Ang**3):
 XXXX=           -273.0573 YYYY=           -273.0421 ZZZZ=            -49.6097 XXXY=             -0.0021
 XXXZ=             -0.0000 YYYX=             -0.0051 YYYZ=              0.0000 ZZZX=             -0.0000
 ZZZY=             -0.0000 XXYY=            -91.0149 XXZZ=            -65.7111 YYZZ=            -65.7064
 XXYZ=              0.0000 YYXZ=             -0.0000 ZZXY=             -0.0025
 N-N= 2.030257545140D+02 E-N=-9.441251197762D+02  KE= 2.310310034369D+02
 Symmetry A'   KE= 2.248146133578D+02
 Symmetry A"   KE= 6.216390079162D+00
 Calling FoFJK, ICntrl=      2127 FMM=F ISym2X=1 I1Cent= 0 IOpClX= 0 NMat=1 NMatS=1 NMatT=0.
 ***** Axes restored to original set *****
 -------------------------------------------------------------------
 Center     Atomic                   Forces (Hartrees/Bohr)
 Number     Number              X              Y              Z
 -------------------------------------------------------------------
      1        6          -0.006401388    0.003509873   -0.000000000
      2        6          -0.000209470    0.007082728   -0.000000000
      3        6           0.005895123    0.003671530    0.000000000
      4        6           0.006051279   -0.003304982    0.000000000
      5        6           0.000182207   -0.006677927    0.000000000
      6        6          -0.005939669   -0.003662391   -0.000000000
      7        1           0.009001100    0.005534105    0.000000000
      8        1           0.009598559   -0.005197133    0.000000000
      9        1           0.000294320   -0.010711188    0.000000000
     10        1          -0.008970637   -0.005513645   -0.000000000
     11        1          -0.009218060    0.004992184   -0.000000000
     12        1          -0.000283363    0.010276845   -0.000000000
 -------------------------------------------------------------------
 Cartesian Forces:  Max     0.010711188 RMS     0.005176512

 GradGradGradGradGradGradGradGradGradGradGradGradGradGradGradGradGradGrad
 Berny optimization.
 FormGI is forming the generalized inverse of G from B-inverse, IUseBI=4.
 Internal  Forces:  Max     0.010915243 RMS     0.003726456
 Search for a local minimum.
 Step number   1 out of a maximum of   64
 All quantities printed in internal units (Hartrees-Bohrs-Radians)
 Mixed Optimization -- RFO/linear search
 Second derivative matrix not updated -- first step.
 ITU=  0
     Eigenvalues ---    0.02154   0.02154   0.02154   0.02154   0.02154
     Eigenvalues ---    0.02154   0.02154   0.02154   0.02154   0.16000
     Eigenvalues ---    0.16000   0.16000   0.16000   0.16000   0.16000
     Eigenvalues ---    0.22000   0.22000   0.22000   0.33660   0.33695
     Eigenvalues ---    0.33722   0.33728   0.33736   0.33772   0.42110
     Eigenvalues ---    0.42110   0.46449   0.46450   0.46450   0.46451
 RFO step:  Lambda=-2.14734605D-03 EMin= 2.15405270D-02
 Linear search not attempted -- first point.
 Iteration  1 RMS(Cart)=  0.01322103 RMS(Int)=  0.00000009
 Iteration  2 RMS(Cart)=  0.00000012 RMS(Int)=  0.00000001
 ClnCor:  largest displacement from symmetrization is 6.98D-10 for atom    12.
 Variable       Old X    -DE/DX   Delta X   Delta X   Delta X     New X
                                 (Linear)    (Quad)   (Total)
    R1        2.63629  -0.00363   0.00000  -0.00778  -0.00778   2.62851
    R2        2.63629  -0.00359   0.00000  -0.00769  -0.00769   2.62859
    R3        2.07908  -0.01092   0.00000  -0.03222  -0.03222   2.04686
    R4        2.63628  -0.00362   0.00000  -0.00775  -0.00775   2.62853
    R5        2.07848  -0.01072   0.00000  -0.03160  -0.03160   2.04688
    R6        2.63626  -0.00357   0.00000  -0.00765  -0.00765   2.62861
    R7        2.07791  -0.01053   0.00000  -0.03102  -0.03102   2.04689
    R8        2.63625  -0.00360   0.00000  -0.00771  -0.00771   2.62855
    R9        2.07777  -0.01048   0.00000  -0.03088  -0.03088   2.04690
   R10        2.63626  -0.00360   0.00000  -0.00772  -0.00772   2.62854
   R11        2.07717  -0.01028   0.00000  -0.03025  -0.03025   2.04692
   R12        2.07802  -0.01057   0.00000  -0.03114  -0.03114   2.04689
    A1        2.09438   0.00001   0.00000   0.00002   0.00002   2.09441
    A2        2.09440  -0.00000   0.00000  -0.00000  -0.00000   2.09440
    A3        2.09440  -0.00001   0.00000  -0.00002  -0.00002   2.09438
    A4        2.09439   0.00001   0.00000   0.00002   0.00002   2.09442
    A5        2.09440  -0.00000   0.00000  -0.00001  -0.00001   2.09439
    A6        2.09439  -0.00000   0.00000  -0.00001  -0.00001   2.09438
    A7        2.09440  -0.00001   0.00000  -0.00003  -0.00003   2.09437
    A8        2.09439   0.00000   0.00000   0.00002   0.00002   2.09441
    A9        2.09439   0.00000   0.00000   0.00001   0.00001   2.09440
   A10        2.09439  -0.00000   0.00000   0.00000   0.00000   2.09440
   A11        2.09440  -0.00000   0.00000  -0.00002  -0.00002   2.09438
   A12        2.09440   0.00000   0.00000   0.00001   0.00001   2.09441
   A13        2.09441  -0.00000   0.00000  -0.00001  -0.00001   2.09440
   A14        2.09439   0.00000   0.00000   0.00001   0.00001   2.09440
   A15        2.09439   0.00000   0.00000  -0.00000  -0.00000   2.09439
   A16        2.09440  -0.00000   0.00000  -0.00002  -0.00002   2.09438
   A17        2.09439   0.00000   0.00000  -0.00000  -0.00000   2.09439
   A18        2.09439   0.00000   0.00000   0.00002   0.00002   2.09442
    D1       -0.00000  -0.00000   0.00000   0.00000   0.00000   0.00000
    D2        3.14159   0.00000   0.00000  -0.00000   0.00000   3.14159
    D3        3.14159  -0.00000   0.00000   0.00000   0.00000   3.14159
    D4        0.00000  -0.00000   0.00000  -0.00000   0.00000   0.00000
    D5        0.00000  -0.00000   0.00000  -0.00000   0.00000   0.00000
    D6        3.14159   0.00000   0.00000   0.00000   0.00000   3.14159
    D7        3.14159   0.00000   0.00000  -0.00000   0.00000   3.14159
    D8       -0.00000  -0.00000   0.00000   0.00000   0.00000   0.00000
    D9        0.00000  -0.00000   0.00000  -0.00000  -0.00000   0.00000
   D10        3.14159   0.00000   0.00000  -0.00000   0.00000   3.14159
   D11        3.14159   0.00000   0.00000   0.00000   0.00000   3.14159
   D12       -0.00000  -0.00000   0.00000   0.00000   0.00000   0.00000
   D13       -0.00000   0.00000   0.00000   0.00000   0.00000   0.00000
   D14        3.14159   0.00000   0.00000   0.00000   0.00000   3.14159
   D15        3.14159   0.00000   0.00000   0.00000   0.00000   3.14159
   D16        0.00000  -0.00000   0.00000  -0.00000  -0.00000   0.00000
   D17       -0.00000   0.00000   0.00000  -0.00000   0.00000   0.00000
   D18        3.14159   0.00000   0.00000  -0.00000   0.00000   3.14159
   D19        3.14159  -0.00000   0.00000  -0.00000   0.00000   3.14159
   D20        0.00000  -0.00000   0.00000   0.00000   0.00000   0.00000
   D21        0.00000  -0.00000   0.00000   0.00000  -0.00000   0.00000
   D22        3.14159  -0.00000   0.00000  -0.00000   0.00000   3.14159
   D23        3.14159  -0.00000   0.00000   0.00000   0.00000   3.14159
   D24       -0.00000  -0.00000   0.00000  -0.00000   0.00000   0.00000
         Item               Value     Threshold  Converged?
 Maximum Force            0.010915     0.000450     NO 
 RMS     Force            0.003726     0.000300     NO 
 Maximum Displacement     0.039166     0.001800     NO 
 RMS     Displacement     0.013221     0.001200     NO 
 Predicted change in Energy=-1.080323D-03
 GradGradGradGradGradGradGradGradGradGradGradGradGradGradGradGradGradGrad

                          Input orientation:                          
 ---------------------------------------------------------------------
 Center     Atomic      Atomic             Coordinates (Angstroms)
 Number     Number       Type             X           Y           Z
 ---------------------------------------------------------------------
      1          6           0       -3.196136    0.192333   -0.000000
      2          6           0       -2.011090    0.920620   -0.000000
      3          6           0       -0.787831    0.258506    0.000000
      4          6           0       -0.749638   -1.131970    0.000000
      5          6           0       -1.934700   -1.860268    0.000000
      6          6           0       -3.157957   -1.198134   -0.000000
      7          1           0       -4.080790   -1.765258   -0.000000
      8          1           0       -4.148691    0.707944   -0.000000
      9          1           0       -2.040841    2.003373   -0.000000
     10          1           0        0.134993    0.825649    0.000000
     11          1           0        0.202940   -1.647582    0.000000
     12          1           0       -1.904959   -2.943044    0.000000
 ---------------------------------------------------------------------
                    Distance matrix (angstroms):
                    1          2          3          4          5
     1  C    0.000000
     2  C    1.390948   0.000000
     3  C    2.409214   1.390956   0.000000
     4  C    2.781930   2.409230   1.391001   0.000000
     5  C    2.409231   2.781938   2.409256   1.390967   0.000000
     6  C    1.390991   2.409237   2.781960   2.409228   1.390964
     7  H    2.148203   3.390811   3.865127   3.390816   2.148193
     8  H    1.083150   2.148155   3.390778   3.865080   3.390792
     9  H    2.148156   1.083161   2.148160   3.390808   3.865099
    10  H    3.390798   2.148183   1.083169   2.148219   3.390838
    11  H    3.865101   3.390810   2.148209   1.083172   2.148194
    12  H    3.390830   3.865121   3.390855   2.148198   1.083184
                    6          7          8          9         10
     6  C    0.000000
     7  H    1.083167   0.000000
     8  H    2.148182   2.474133   0.000000
     9  H    3.390810   4.285321   2.474100   0.000000
    10  H    3.865128   4.948295   4.285301   2.474123   0.000000
    11  H    3.390816   4.285346   4.948252   4.285327   2.474165
    12  H    2.148189   2.474151   4.285329   4.948282   4.285376
                   11         12
    11  H    0.000000
    12  H    2.474158   0.000000
 Stoichiometry    C6H6
 Framework group  CS[SG(C6H6)]
 Deg. of freedom    21
 Full point group                 CS      NOp   2
 Largest Abelian subgroup         CS      NOp   2
 Largest concise Abelian subgroup C1      NOp   1
                         Standard orientation:                         
 ---------------------------------------------------------------------
 Center     Atomic      Atomic             Coordinates (Angstroms)
 Number     Number       Type             X           Y           Z
 ---------------------------------------------------------------------
      1          6           0        0.000000    1.390961    0.000000
      2          6           0       -1.204602    0.695496    0.000000
      3          6           0       -1.204642   -0.695460    0.000000
      4          6           0       -0.000005   -1.390969    0.000000
      5          6           0        1.204614   -0.695496    0.000000
      6          6           0        1.204635    0.695468    0.000000
      7          1           0        2.142683    1.237057    0.000000
      8          1           0        0.000013    2.474111    0.000000
      9          1           0       -2.142638    1.237092    0.000000
     10          1           0       -2.142702   -1.237031    0.000000
     11          1           0       -0.000028   -2.474141    0.000000
     12          1           0        2.142674   -1.237094    0.000000
 ---------------------------------------------------------------------
 Rotational constants (GHZ):           5.7325449           5.7324167           2.8662404
 Standard basis: 6-311++G(d,p) (5D, 7F)
 There are   138 symmetry adapted cartesian basis functions of A'  symmetry.
 There are    42 symmetry adapted cartesian basis functions of A"  symmetry.
 There are   132 symmetry adapted basis functions of A'  symmetry.
 There are    42 symmetry adapted basis functions of A"  symmetry.
   174 basis functions,   270 primitive gaussians,   180 cartesian basis functions
    21 alpha electrons       21 beta electrons
       nuclear repulsion energy       203.9957034077 Hartrees.
 NAtoms=   12 NActive=   12 NUniq=   12 SFac= 1.00D+00 NAtFMM=   60 NAOKFM=F Big=F
 Integral buffers will be    131072 words long.
 Raffenetti 2 integral format.
 Two-electron integral symmetry is turned on.
 One-electron integrals computed using PRISM.
 NBasis=   174 RedAO= T EigKep=  1.04D-06  NBF=   132    42
 NBsUse=   174 1.00D-06 EigRej= -1.00D+00 NBFU=   132    42
 Initial guess from the checkpoint file:  "frequency_chks/benzene_Freq.chk"
 B after Tr=     0.000000   -0.000000    0.000000
         Rot=    0.866025   -0.000000    0.000000   -0.500001 Ang= -60.00 deg.
 Initial guess orbital symmetries:
       Occupied  (A') (A') (A') (A') (A') (A') (A') (A') (A') (A')
                 (A') (A') (A') (A') (A') (A') (A") (A') (A') (A")
                 (A")
       Virtual   (A') (A') (A') (A") (A") (A') (A') (A') (A") (A')
                 (A") (A") (A') (A') (A') (A') (A') (A') (A") (A")
                 (A") (A') (A') (A') (A') (A') (A') (A') (A") (A')
                 (A') (A') (A') (A') (A') (A') (A') (A') (A') (A')
                 (A') (A') (A') (A') (A') (A") (A') (A') (A') (A')
                 (A') (A') (A") (A") (A') (A") (A") (A") (A') (A')
                 (A') (A') (A') (A') (A') (A') (A') (A') (A') (A')
                 (A') (A') (A") (A') (A') (A") (A") (A") (A") (A")
                 (A') (A') (A') (A') (A') (A') (A") (A") (A") (A')
                 (A') (A') (A') (A") (A") (A") (A') (A') (A') (A")
                 (A") (A') (A') (A') (A') (A') (A') (A") (A") (A")
                 (A") (A') (A') (A') (A') (A') (A') (A') (A') (A')
                 (A") (A') (A') (A') (A') (A') (A") (A") (A') (A")
                 (A") (A') (A') (A") (A') (A') (A') (A') (A') (A')
                 (A') (A') (A') (A') (A') (A') (A') (A') (A') (A')
                 (A') (A') (A')
 ExpMin= 3.60D-02 ExpMax= 4.56D+03 ExpMxC= 6.82D+02 IAcc=3 IRadAn=         5 AccDes= 0.00D+00
 Harris functional with IExCor= 1009 and IRadAn=       5 diagonalized for initial guess.
 HarFok:  IExCor= 1009 AccDes= 0.00D+00 IRadAn=         5 IDoV= 1 UseB2=F ITyADJ=14
 ICtDFT=  3500011 ScaDFX=  1.000000  1.000000  1.000000  1.000000
 FoFCou: FMM=F IPFlag=           0 FMFlag=      100000 FMFlg1=           0
         NFxFlg=           0 DoJE=T BraDBF=F KetDBF=T FulRan=T
         wScrn=  0.000000 ICntrl=       500 IOpCl=  0 I1Cent=   200000004 NGrid=           0
         NMat0=    1 NMatS0=      1 NMatT0=    0 NMatD0=    1 NMtDS0=    0 NMtDT0=    0
 Petite list used in FoFCou.
 Keep R1 ints in memory in symmetry-blocked form, NReq=178178715.
 Requested convergence on RMS density matrix=1.00D-08 within 128 cycles.
 Requested convergence on MAX density matrix=1.00D-06.
 Requested convergence on             energy=1.00D-06.
 No special actions if energy rises.
 SCF Done:  E(RM062X) =  -232.198406702     A.U. after   10 cycles
            NFock= 10  Conv=0.58D-09     -V/T= 2.0042
 Calling FoFJK, ICntrl=      2127 FMM=F ISym2X=1 I1Cent= 0 IOpClX= 0 NMat=1 NMatS=1 NMatT=0.
 ***** Axes restored to original set *****
 -------------------------------------------------------------------
 Center     Atomic                   Forces (Hartrees/Bohr)
 Number     Number              X              Y              Z
 -------------------------------------------------------------------
      1        6          -0.000275550    0.000111994   -0.000000000
      2        6          -0.000040381    0.000352125    0.000000000
      3        6           0.000316817    0.000111221    0.000000000
      4        6           0.000274284   -0.000119070    0.000000000
      5        6           0.000048470   -0.000353047   -0.000000000
      6        6          -0.000310074   -0.000123692   -0.000000000
      7        1          -0.000312342   -0.000196286   -0.000000000
      8        1          -0.000338082    0.000183363    0.000000000
      9        1          -0.000007588    0.000374134    0.000000000
     10        1           0.000311968    0.000194370    0.000000000
     11        1           0.000324600   -0.000176826   -0.000000000
     12        1           0.000007878   -0.000358285   -0.000000000
 -------------------------------------------------------------------
 Cartesian Forces:  Max     0.000374134 RMS     0.000202683

 GradGradGradGradGradGradGradGradGradGradGradGradGradGradGradGradGradGrad
 Berny optimization.
 Using GEDIIS/GDIIS optimizer.
 FormGI is forming the generalized inverse of G from B-inverse, IUseBI=4.
 Internal  Forces:  Max     0.000735173 RMS     0.000263274
 Search for a local minimum.
 Step number   2 out of a maximum of   64
 All quantities printed in internal units (Hartrees-Bohrs-Radians)
 Mixed Optimization -- En-DIIS/RFO-DIIS
 Update second derivatives using D2CorX and points    1    2
 DE= -1.04D-03 DEPred=-1.08D-03 R= 9.62D-01
 TightC=F SS=  1.41D+00  RLast= 7.87D-02 DXNew= 5.0454D-01 2.3611D-01
 Trust test= 9.62D-01 RLast= 7.87D-02 DXMaxT set to 3.00D-01
 ITU=  1  0
 Use linear search instead of GDIIS.
     Eigenvalues ---    0.02154   0.02154   0.02154   0.02154   0.02154
     Eigenvalues ---    0.02154   0.02154   0.02154   0.02154   0.16000
     Eigenvalues ---    0.16000   0.16000   0.16000   0.16000   0.16000
     Eigenvalues ---    0.22000   0.22000   0.22000   0.33670   0.33703
     Eigenvalues ---    0.33725   0.33733   0.33763   0.34349   0.42089
     Eigenvalues ---    0.42089   0.46449   0.46450   0.46451   0.48054
 RFO step:  Lambda=-3.58805542D-06 EMin= 2.15405270D-02
 Quartic linear search produced a step of -0.04333.
 Iteration  1 RMS(Cart)=  0.00091052 RMS(Int)=  0.00000000
 Iteration  2 RMS(Cart)=  0.00000001 RMS(Int)=  0.00000000
 ClnCor:  largest displacement from symmetrization is 2.76D-12 for atom    12.
 Variable       Old X    -DE/DX   Delta X   Delta X   Delta X     New X
                                 (Linear)    (Quad)   (Total)
    R1        2.62851   0.00070   0.00034   0.00109   0.00142   2.62994
    R2        2.62859   0.00067   0.00033   0.00102   0.00135   2.62994
    R3        2.04686   0.00038   0.00140  -0.00043   0.00097   2.04782
    R4        2.62853   0.00074   0.00034   0.00115   0.00149   2.63001
    R5        2.04688   0.00037   0.00137  -0.00043   0.00094   2.04782
    R6        2.62861   0.00066   0.00033   0.00100   0.00133   2.62994
    R7        2.04689   0.00037   0.00134  -0.00042   0.00092   2.04781
    R8        2.62855   0.00069   0.00033   0.00105   0.00139   2.62994
    R9        2.04690   0.00037   0.00134  -0.00041   0.00093   2.04782
   R10        2.62854   0.00073   0.00033   0.00114   0.00147   2.63001
   R11        2.04692   0.00036   0.00131  -0.00041   0.00090   2.04782
   R12        2.04689   0.00037   0.00135  -0.00042   0.00092   2.04781
    A1        2.09441   0.00000  -0.00000   0.00001   0.00001   2.09441
    A2        2.09440  -0.00000   0.00000  -0.00001  -0.00001   2.09439
    A3        2.09438   0.00000   0.00000  -0.00000  -0.00000   2.09438
    A4        2.09442  -0.00001  -0.00000  -0.00002  -0.00002   2.09439
    A5        2.09439   0.00001   0.00000   0.00003   0.00003   2.09441
    A6        2.09438   0.00000   0.00000  -0.00001  -0.00000   2.09438
    A7        2.09437   0.00000   0.00000   0.00001   0.00001   2.09438
    A8        2.09441  -0.00000  -0.00000  -0.00002  -0.00002   2.09439
    A9        2.09440   0.00000  -0.00000   0.00001   0.00001   2.09441
   A10        2.09440   0.00000  -0.00000   0.00002   0.00002   2.09441
   A11        2.09438  -0.00000   0.00000  -0.00000  -0.00000   2.09438
   A12        2.09441  -0.00000  -0.00000  -0.00001  -0.00001   2.09439
   A13        2.09440  -0.00000   0.00000  -0.00001  -0.00001   2.09439
   A14        2.09440   0.00000  -0.00000   0.00002   0.00002   2.09441
   A15        2.09439  -0.00000   0.00000  -0.00001  -0.00001   2.09438
   A16        2.09438   0.00000   0.00000   0.00000   0.00000   2.09438
   A17        2.09439   0.00000   0.00000   0.00002   0.00002   2.09441
   A18        2.09442  -0.00000  -0.00000  -0.00002  -0.00002   2.09439
    D1       -0.00000  -0.00000   0.00000   0.00000   0.00000   0.00000
    D2        3.14159  -0.00000   0.00000  -0.00000   0.00000   3.14159
    D3        3.14159   0.00000   0.00000   0.00000   0.00000   3.14159
    D4        0.00000  -0.00000   0.00000  -0.00000   0.00000   0.00000
    D5        0.00000   0.00000   0.00000   0.00000  -0.00000   0.00000
    D6        3.14159   0.00000   0.00000   0.00000   0.00000   3.14159
    D7        3.14159   0.00000   0.00000   0.00000   0.00000   3.14159
    D8       -0.00000  -0.00000   0.00000   0.00000   0.00000   0.00000
    D9        0.00000  -0.00000   0.00000  -0.00000  -0.00000   0.00000
   D10        3.14159   0.00000   0.00000  -0.00000   0.00000   3.14159
   D11        3.14159   0.00000   0.00000  -0.00000   0.00000   3.14159
   D12       -0.00000  -0.00000   0.00000  -0.00000   0.00000   0.00000
   D13       -0.00000  -0.00000   0.00000   0.00000   0.00000   0.00000
   D14        3.14159   0.00000   0.00000   0.00000   0.00000   3.14159
   D15        3.14159   0.00000   0.00000   0.00000   0.00000   3.14159
   D16        0.00000  -0.00000   0.00000   0.00000  -0.00000   0.00000
   D17        0.00000  -0.00000   0.00000  -0.00000  -0.00000   0.00000
   D18        3.14159  -0.00000   0.00000  -0.00000   0.00000   3.14159
   D19        3.14159  -0.00000   0.00000  -0.00000   0.00000   3.14159
   D20       -0.00000  -0.00000   0.00000  -0.00000   0.00000   0.00000
   D21       -0.00000   0.00000   0.00000  -0.00000   0.00000   0.00000
   D22        3.14159  -0.00000   0.00000  -0.00000   0.00000   3.14159
   D23        3.14159  -0.00000   0.00000   0.00000   0.00000   3.14159
   D24       -0.00000   0.00000   0.00000   0.00000   0.00000   0.00000
         Item               Value     Threshold  Converged?
 Maximum Force            0.000735     0.000450     NO 
 RMS     Force            0.000263     0.000300     YES
 Maximum Displacement     0.002358     0.001800     NO 
 RMS     Displacement     0.000911     0.001200     YES
 Predicted change in Energy=-4.066694D-06
 GradGradGradGradGradGradGradGradGradGradGradGradGradGradGradGradGradGrad

                          Input orientation:                          
 ---------------------------------------------------------------------
 Center     Atomic      Atomic             Coordinates (Angstroms)
 Number     Number       Type             X           Y           Z
 ---------------------------------------------------------------------
      1          6           0       -3.196805    0.192678   -0.000000
      2          6           0       -2.011124    0.921371    0.000000
      3          6           0       -0.787180    0.258866    0.000000
      4          6           0       -0.748978   -1.132316   -0.000000
      5          6           0       -1.934660   -1.861009   -0.000000
      6          6           0       -3.158603   -1.198503   -0.000000
      7          1           0       -4.081839   -1.765906   -0.000000
      8          1           0       -4.149812    0.708528   -0.000000
      9          1           0       -2.040868    2.004621    0.000000
     10          1           0        0.136057    0.826267    0.000000
     11          1           0        0.204028   -1.648167   -0.000000
     12          1           0       -1.904914   -2.944259   -0.000000
 ---------------------------------------------------------------------
                    Distance matrix (angstroms):
                    1          2          3          4          5
     1  C    0.000000
     2  C    1.391702   0.000000
     3  C    2.410534   1.391744   0.000000
     4  C    2.783427   2.410527   1.391706   0.000000
     5  C    2.410528   2.783431   2.410514   1.391702   0.000000
     6  C    1.391706   2.410514   2.783446   2.410534   1.391744
     7  H    2.149264   3.392539   3.867102   3.392550   2.149285
     8  H    1.083662   2.149253   3.392564   3.867089   3.392554
     9  H    2.149262   1.083658   2.149278   3.392543   3.867089
    10  H    3.392551   2.149286   1.083656   2.149263   3.392538
    11  H    3.867089   3.392554   2.149248   1.083662   2.149253
    12  H    3.392544   3.867089   3.392541   2.149261   1.083658
                    6          7          8          9         10
     6  C    0.000000
     7  H    1.083656   0.000000
     8  H    2.149248   2.475368   0.000000
     9  H    3.392541   4.287474   2.475379   0.000000
    10  H    3.867102   4.950758   4.287486   2.475383   0.000000
    11  H    3.392563   4.287484   4.950751   4.287472   2.475367
    12  H    2.149278   2.475382   4.287472   4.950747   4.287473
                   11         12
    11  H    0.000000
    12  H    2.475377   0.000000
 Stoichiometry    C6H6
 Framework group  CS[SG(C6H6)]
 Deg. of freedom    21
 Full point group                 CS      NOp   2
 Largest Abelian subgroup         CS      NOp   2
 Largest concise Abelian subgroup C1      NOp   1
                         Standard orientation:                         
 ---------------------------------------------------------------------
 Center     Atomic      Atomic             Coordinates (Angstroms)
 Number     Number       Type             X           Y           Z
 ---------------------------------------------------------------------
      1          6           0        0.695851    1.205263    0.000000
      2          6           0       -0.695851    1.205265   -0.000000
      3          6           0       -1.391723   -0.000021   -0.000000
      4          6           0       -0.695851   -1.205263   -0.000000
      5          6           0        0.695851   -1.205265    0.000000
      6          6           0        1.391723    0.000021    0.000000
      7          1           0        2.475379    0.000017    0.000000
      8          1           0        1.237682    2.143741    0.000000
      9          1           0       -1.237696    2.143730   -0.000000
     10          1           0       -2.475379   -0.000019   -0.000000
     11          1           0       -1.237682   -2.143742   -0.000000
     12          1           0        1.237696   -2.143731    0.000000
 ---------------------------------------------------------------------
 Rotational constants (GHZ):           5.7264704           5.7263762           2.8632116
 Standard basis: 6-311++G(d,p) (5D, 7F)
 There are   138 symmetry adapted cartesian basis functions of A'  symmetry.
 There are    42 symmetry adapted cartesian basis functions of A"  symmetry.
 There are   132 symmetry adapted basis functions of A'  symmetry.
 There are    42 symmetry adapted basis functions of A"  symmetry.
   174 basis functions,   270 primitive gaussians,   180 cartesian basis functions
    21 alpha electrons       21 beta electrons
       nuclear repulsion energy       203.8888831553 Hartrees.
 NAtoms=   12 NActive=   12 NUniq=   12 SFac= 1.00D+00 NAtFMM=   60 NAOKFM=F Big=F
 Integral buffers will be    131072 words long.
 Raffenetti 2 integral format.
 Two-electron integral symmetry is turned on.
 One-electron integrals computed using PRISM.
 NBasis=   174 RedAO= T EigKep=  1.05D-06  NBF=   132    42
 NBsUse=   174 1.00D-06 EigRej= -1.00D+00 NBFU=   132    42
 Initial guess from the checkpoint file:  "frequency_chks/benzene_Freq.chk"
 B after Tr=     0.000000    0.000000    0.000000
         Rot=    0.965928    0.000000    0.000000    0.258811 Ang=  30.00 deg.
 Initial guess orbital symmetries:
       Occupied  (A') (A') (A') (A') (A') (A') (A') (A') (A') (A')
                 (A') (A') (A') (A') (A') (A') (A") (A') (A') (A")
                 (A")
       Virtual   (A') (A') (A') (A") (A") (A') (A') (A') (A") (A')
                 (A") (A") (A') (A') (A') (A') (A') (A') (A") (A")
                 (A") (A') (A') (A') (A') (A') (A') (A') (A') (A')
                 (A") (A') (A') (A') (A') (A') (A') (A') (A') (A')
                 (A') (A') (A') (A') (A') (A") (A') (A') (A') (A')
                 (A') (A') (A") (A") (A') (A") (A") (A") (A') (A')
                 (A') (A') (A') (A') (A') (A') (A') (A') (A') (A')
                 (A') (A') (A") (A') (A') (A") (A") (A") (A") (A")
                 (A') (A') (A') (A') (A') (A') (A") (A") (A") (A')
                 (A') (A') (A') (A") (A") (A") (A') (A') (A') (A")
                 (A") (A') (A') (A') (A') (A') (A') (A") (A") (A")
                 (A") (A') (A') (A') (A') (A') (A') (A') (A') (A')
                 (A") (A') (A') (A') (A') (A') (A") (A") (A') (A")
                 (A") (A') (A') (A") (A') (A') (A') (A') (A') (A')
                 (A') (A') (A') (A') (A') (A') (A') (A') (A') (A')
                 (A') (A') (A')
 Keep R1 ints in memory in symmetry-blocked form, NReq=178178715.
 Requested convergence on RMS density matrix=1.00D-08 within 128 cycles.
 Requested convergence on MAX density matrix=1.00D-06.
 Requested convergence on             energy=1.00D-06.
 No special actions if energy rises.
 SCF Done:  E(RM062X) =  -232.198410510     A.U. after    8 cycles
            NFock=  8  Conv=0.38D-08     -V/T= 2.0043
 Calling FoFJK, ICntrl=      2127 FMM=F ISym2X=1 I1Cent= 0 IOpClX= 0 NMat=1 NMatS=1 NMatT=0.
 ***** Axes restored to original set *****
 -------------------------------------------------------------------
 Center     Atomic                   Forces (Hartrees/Bohr)
 Number     Number              X              Y              Z
 -------------------------------------------------------------------
      1        6           0.000017402   -0.000056474   -0.000000000
      2        6           0.000071356   -0.000060471   -0.000000000
      3        6          -0.000104888   -0.000031324    0.000000000
      4        6          -0.000017210    0.000056106    0.000000000
      5        6          -0.000071082    0.000060558    0.000000000
      6        6           0.000104776    0.000031100   -0.000000000
      7        1          -0.000018975   -0.000011139    0.000000000
      8        1          -0.000011640    0.000010851    0.000000000
      9        1          -0.000004818    0.000017129    0.000000000
     10        1           0.000018936    0.000011324   -0.000000000
     11        1           0.000011447   -0.000010637   -0.000000000
     12        1           0.000004696   -0.000017023   -0.000000000
 -------------------------------------------------------------------
 Cartesian Forces:  Max     0.000104888 RMS     0.000037427

 GradGradGradGradGradGradGradGradGradGradGradGradGradGradGradGradGradGrad
 Berny optimization.
 Using GEDIIS/GDIIS optimizer.
 FormGI is forming the generalized inverse of G from B-inverse, IUseBI=4.
 Internal  Forces:  Max     0.000085988 RMS     0.000020883
 Search for a local minimum.
 Step number   3 out of a maximum of   64
 All quantities printed in internal units (Hartrees-Bohrs-Radians)
 Mixed Optimization -- En-DIIS/RFO-DIIS
 Swapping is turned off.
 Update second derivatives using D2CorX and points    1    2    3
 DE= -3.81D-06 DEPred=-4.07D-06 R= 9.36D-01
 TightC=F SS=  1.41D+00  RLast= 4.14D-03 DXNew= 5.0454D-01 1.2417D-02
 Trust test= 9.36D-01 RLast= 4.14D-03 DXMaxT set to 3.00D-01
 ITU=  1  1  0
     Eigenvalues ---    0.02154   0.02154   0.02154   0.02154   0.02154
     Eigenvalues ---    0.02154   0.02154   0.02154   0.02154   0.15999
     Eigenvalues ---    0.16000   0.16000   0.16000   0.16000   0.16001
     Eigenvalues ---    0.21997   0.22000   0.22001   0.33670   0.33703
     Eigenvalues ---    0.33723   0.33727   0.33761   0.33976   0.42092
     Eigenvalues ---    0.42093   0.46081   0.46449   0.46450   0.52343
 En-DIIS/RFO-DIIS/Sim-DIIS IScMMF=       -3 using points:     3    2
 RFO step:  Lambda=-4.74578376D-08.
 DidBck=F Rises=F RFO-DIIS coefs:    0.96931    0.03069
 Iteration  1 RMS(Cart)=  0.00003903 RMS(Int)=  0.00000000
 Iteration  2 RMS(Cart)=  0.00000000 RMS(Int)=  0.00000000
 ClnCor:  largest displacement from symmetrization is 5.34D-13 for atom     8.
 Variable       Old X    -DE/DX   Delta X   Delta X   Delta X     New X
                                 (Linear)    (Quad)   (Total)
    R1        2.62994  -0.00002  -0.00004   0.00002  -0.00003   2.62991
    R2        2.62994  -0.00005  -0.00004  -0.00007  -0.00011   2.62984
    R3        2.04782   0.00002  -0.00003   0.00008   0.00005   2.04788
    R4        2.63001  -0.00009  -0.00005  -0.00013  -0.00017   2.62984
    R5        2.04782   0.00002  -0.00003   0.00009   0.00006   2.04788
    R6        2.62994  -0.00005  -0.00004  -0.00007  -0.00011   2.62984
    R7        2.04781   0.00002  -0.00003   0.00010   0.00007   2.04789
    R8        2.62994  -0.00002  -0.00004   0.00002  -0.00003   2.62991
    R9        2.04782   0.00002  -0.00003   0.00008   0.00005   2.04788
   R10        2.63001  -0.00009  -0.00005  -0.00013  -0.00017   2.62984
   R11        2.04782   0.00002  -0.00003   0.00009   0.00006   2.04788
   R12        2.04781   0.00002  -0.00003   0.00010   0.00007   2.04789
    A1        2.09441  -0.00000  -0.00000  -0.00002  -0.00002   2.09439
    A2        2.09439  -0.00000   0.00000  -0.00002  -0.00002   2.09438
    A3        2.09438   0.00001   0.00000   0.00003   0.00003   2.09441
    A4        2.09439  -0.00000   0.00000  -0.00001  -0.00001   2.09438
    A5        2.09441  -0.00000  -0.00000  -0.00002  -0.00002   2.09439
    A6        2.09438   0.00001   0.00000   0.00003   0.00003   2.09441
    A7        2.09438   0.00001  -0.00000   0.00003   0.00003   2.09441
    A8        2.09439  -0.00000   0.00000  -0.00001  -0.00001   2.09438
    A9        2.09441  -0.00000  -0.00000  -0.00002  -0.00002   2.09440
   A10        2.09441  -0.00000  -0.00000  -0.00002  -0.00002   2.09439
   A11        2.09438   0.00001   0.00000   0.00003   0.00003   2.09441
   A12        2.09439  -0.00000   0.00000  -0.00001  -0.00001   2.09438
   A13        2.09439  -0.00000   0.00000  -0.00001  -0.00001   2.09438
   A14        2.09441  -0.00000  -0.00000  -0.00002  -0.00002   2.09439
   A15        2.09438   0.00001   0.00000   0.00003   0.00003   2.09441
   A16        2.09438   0.00001  -0.00000   0.00003   0.00003   2.09441
   A17        2.09441  -0.00000  -0.00000  -0.00002  -0.00002   2.09440
   A18        2.09439  -0.00000   0.00000  -0.00001  -0.00001   2.09438
    D1        0.00000   0.00000   0.00000  -0.00000   0.00000   0.00000
    D2        3.14159   0.00000  -0.00000   0.00000   0.00000   3.14159
    D3        3.14159  -0.00000  -0.00000   0.00000   0.00000   3.14159
    D4       -0.00000   0.00000   0.00000   0.00000   0.00000   0.00000
    D5       -0.00000   0.00000   0.00000   0.00000   0.00000   0.00000
    D6        3.14159  -0.00000  -0.00000  -0.00000   0.00000   3.14159
    D7        3.14159  -0.00000  -0.00000  -0.00000   0.00000   3.14159
    D8        0.00000  -0.00000   0.00000  -0.00000   0.00000   0.00000
    D9       -0.00000   0.00000   0.00000   0.00000   0.00000   0.00000
   D10        3.14159  -0.00000  -0.00000  -0.00000   0.00000   3.14159
   D11        3.14159  -0.00000  -0.00000  -0.00000   0.00000   3.14159
   D12       -0.00000   0.00000   0.00000  -0.00000   0.00000   0.00000
   D13        0.00000  -0.00000   0.00000  -0.00000  -0.00000   0.00000
   D14        3.14159  -0.00000  -0.00000   0.00000   0.00000   3.14159
   D15        3.14159   0.00000  -0.00000   0.00000   0.00000   3.14159
   D16        0.00000   0.00000   0.00000   0.00000  -0.00000   0.00000
   D17       -0.00000   0.00000   0.00000   0.00000   0.00000   0.00000
   D18        3.14159   0.00000  -0.00000   0.00000   0.00000   3.14159
   D19        3.14159   0.00000  -0.00000   0.00000   0.00000   3.14159
   D20        0.00000   0.00000   0.00000  -0.00000   0.00000   0.00000
   D21        0.00000  -0.00000   0.00000  -0.00000   0.00000   0.00000
   D22        3.14159   0.00000  -0.00000   0.00000   0.00000   3.14159
   D23        3.14159  -0.00000  -0.00000  -0.00000   0.00000   3.14159
   D24       -0.00000   0.00000   0.00000   0.00000   0.00000   0.00000
         Item               Value     Threshold  Converged?
 Maximum Force            0.000086     0.000450     YES
 RMS     Force            0.000021     0.000300     YES
 Maximum Displacement     0.000115     0.001800     YES
 RMS     Displacement     0.000039     0.001200     YES
 Predicted change in Energy=-2.526118D-08
 Optimization completed.
    -- Stationary point found.
                           ----------------------------
                           !   Optimized Parameters   !
                           ! (Angstroms and Degrees)  !
 --------------------------                            --------------------------
 ! Name  Definition              Value          Derivative Info.                !
 --------------------------------------------------------------------------------
 ! R1    R(1,2)                  1.3917         -DE/DX =    0.0                 !
 ! R2    R(1,6)                  1.3917         -DE/DX =   -0.0001              !
 ! R3    R(1,8)                  1.0837         -DE/DX =    0.0                 !
 ! R4    R(2,3)                  1.3917         -DE/DX =   -0.0001              !
 ! R5    R(2,9)                  1.0837         -DE/DX =    0.0                 !
 ! R6    R(3,4)                  1.3917         -DE/DX =   -0.0001              !
 ! R7    R(3,10)                 1.0837         -DE/DX =    0.0                 !
 ! R8    R(4,5)                  1.3917         -DE/DX =    0.0                 !
 ! R9    R(4,11)                 1.0837         -DE/DX =    0.0                 !
 ! R10   R(5,6)                  1.3917         -DE/DX =   -0.0001              !
 ! R11   R(5,12)                 1.0837         -DE/DX =    0.0                 !
 ! R12   R(6,7)                  1.0837         -DE/DX =    0.0                 !
 ! A1    A(2,1,6)              120.001          -DE/DX =    0.0                 !
 ! A2    A(2,1,8)              120.0            -DE/DX =    0.0                 !
 ! A3    A(6,1,8)              119.9991         -DE/DX =    0.0                 !
 ! A4    A(1,2,3)              119.9999         -DE/DX =    0.0                 !
 ! A5    A(1,2,9)              120.0011         -DE/DX =    0.0                 !
 ! A6    A(3,2,9)              119.999          -DE/DX =    0.0                 !
 ! A7    A(2,3,4)              119.9991         -DE/DX =    0.0                 !
 ! A8    A(2,3,10)             119.9999         -DE/DX =    0.0                 !
 ! A9    A(4,3,10)             120.001          -DE/DX =    0.0                 !
 ! A10   A(3,4,5)              120.001          -DE/DX =    0.0                 !
 ! A11   A(3,4,11)             119.9991         -DE/DX =    0.0                 !
 ! A12   A(5,4,11)             119.9999         -DE/DX =    0.0                 !
 ! A13   A(4,5,6)              119.9999         -DE/DX =    0.0                 !
 ! A14   A(4,5,12)             120.001          -DE/DX =    0.0                 !
 ! A15   A(6,5,12)             119.9991         -DE/DX =    0.0                 !
 ! A16   A(1,6,5)              119.9991         -DE/DX =    0.0                 !
 ! A17   A(1,6,7)              120.0011         -DE/DX =    0.0                 !
 ! A18   A(5,6,7)              119.9998         -DE/DX =    0.0                 !
 ! D1    D(6,1,2,3)              0.0            -DE/DX =    0.0                 !
 ! D2    D(6,1,2,9)            180.0            -DE/DX =    0.0                 !
 ! D3    D(8,1,2,3)            180.0            -DE/DX =    0.0                 !
 ! D4    D(8,1,2,9)              0.0            -DE/DX =    0.0                 !
 ! D5    D(2,1,6,5)              0.0            -DE/DX =    0.0                 !
 ! D6    D(2,1,6,7)            180.0            -DE/DX =    0.0                 !
 ! D7    D(8,1,6,5)            180.0            -DE/DX =    0.0                 !
 ! D8    D(8,1,6,7)              0.0            -DE/DX =    0.0                 !
 ! D9    D(1,2,3,4)              0.0            -DE/DX =    0.0                 !
 ! D10   D(1,2,3,10)           180.0            -DE/DX =    0.0                 !
 ! D11   D(9,2,3,4)            180.0            -DE/DX =    0.0                 !
 ! D12   D(9,2,3,10)             0.0            -DE/DX =    0.0                 !
 ! D13   D(2,3,4,5)              0.0            -DE/DX =    0.0                 !
 ! D14   D(2,3,4,11)           180.0            -DE/DX =    0.0                 !
 ! D15   D(10,3,4,5)           180.0            -DE/DX =    0.0                 !
 ! D16   D(10,3,4,11)            0.0            -DE/DX =    0.0                 !
 ! D17   D(3,4,5,6)              0.0            -DE/DX =    0.0                 !
 ! D18   D(3,4,5,12)           180.0            -DE/DX =    0.0                 !
 ! D19   D(11,4,5,6)           180.0            -DE/DX =    0.0                 !
 ! D20   D(11,4,5,12)            0.0            -DE/DX =    0.0                 !
 ! D21   D(4,5,6,1)              0.0            -DE/DX =    0.0                 !
 ! D22   D(4,5,6,7)            180.0            -DE/DX =    0.0                 !
 ! D23   D(12,5,6,1)           180.0            -DE/DX =    0.0                 !
 ! D24   D(12,5,6,7)             0.0            -DE/DX =    0.0                 !
 --------------------------------------------------------------------------------
 GradGradGradGradGradGradGradGradGradGradGradGradGradGradGradGradGradGrad

                          Input orientation:                          
 ---------------------------------------------------------------------
 Center     Atomic      Atomic             Coordinates (Angstroms)
 Number     Number       Type             X           Y           Z
 ---------------------------------------------------------------------
      1          6           0       -3.196805    0.192678    0.000000
      2          6           0       -2.011124    0.921371    0.000000
      3          6           0       -0.787180    0.258866   -0.000000
      4          6           0       -0.748978   -1.132316   -0.000000
      5          6           0       -1.934660   -1.861009   -0.000000
      6          6           0       -3.158603   -1.198503    0.000000
      7          1           0       -4.081839   -1.765906    0.000000
      8          1           0       -4.149812    0.708528    0.000000
      9          1           0       -2.040868    2.004621    0.000000
     10          1           0        0.136057    0.826267   -0.000000
     11          1           0        0.204028   -1.648167   -0.000000
     12          1           0       -1.904914   -2.944259   -0.000000
 ---------------------------------------------------------------------
                    Distance matrix (angstroms):
                    1          2          3          4          5
     1  C    0.000000
     2  C    1.391702   0.000000
     3  C    2.410534   1.391744   0.000000
     4  C    2.783427   2.410527   1.391706   0.000000
     5  C    2.410528   2.783431   2.410514   1.391702   0.000000
     6  C    1.391706   2.410514   2.783446   2.410534   1.391744
     7  H    2.149264   3.392539   3.867102   3.392550   2.149285
     8  H    1.083662   2.149253   3.392564   3.867089   3.392554
     9  H    2.149262   1.083658   2.149278   3.392543   3.867089
    10  H    3.392551   2.149286   1.083656   2.149263   3.392538
    11  H    3.867089   3.392554   2.149248   1.083662   2.149253
    12  H    3.392544   3.867089   3.392541   2.149261   1.083658
                    6          7          8          9         10
     6  C    0.000000
     7  H    1.083656   0.000000
     8  H    2.149248   2.475368   0.000000
     9  H    3.392541   4.287474   2.475379   0.000000
    10  H    3.867102   4.950758   4.287486   2.475383   0.000000
    11  H    3.392563   4.287484   4.950751   4.287472   2.475367
    12  H    2.149278   2.475382   4.287472   4.950747   4.287473
                   11         12
    11  H    0.000000
    12  H    2.475377   0.000000
 Stoichiometry    C6H6
 Framework group  CS[SG(C6H6)]
 Deg. of freedom    21
 Full point group                 CS      NOp   2
 Largest Abelian subgroup         CS      NOp   2
 Largest concise Abelian subgroup C1      NOp   1
                         Standard orientation:                         
 ---------------------------------------------------------------------
 Center     Atomic      Atomic             Coordinates (Angstroms)
 Number     Number       Type             X           Y           Z
 ---------------------------------------------------------------------
      1          6           0        0.695851    1.205263    0.000000
      2          6           0       -0.695851    1.205265    0.000000
      3          6           0       -1.391723   -0.000021   -0.000000
      4          6           0       -0.695851   -1.205263   -0.000000
      5          6           0        0.695851   -1.205265   -0.000000
      6          6           0        1.391723    0.000021    0.000000
      7          1           0        2.475379    0.000017    0.000000
      8          1           0        1.237682    2.143741    0.000000
      9          1           0       -1.237696    2.143730    0.000000
     10          1           0       -2.475379   -0.000019   -0.000000
     11          1           0       -1.237682   -2.143742   -0.000000
     12          1           0        1.237696   -2.143731   -0.000000
 ---------------------------------------------------------------------
 Rotational constants (GHZ):           5.7264704           5.7263762           2.8632116

 **********************************************************************

            Population analysis using the SCF Density.

 **********************************************************************

 Orbital symmetries:
       Occupied  (A') (A') (A') (A') (A') (A') (A') (A') (A') (A')
                 (A') (A') (A') (A') (A') (A') (A") (A') (A') (A")
                 (A")
       Virtual   (A') (A') (A') (A") (A") (A') (A') (A') (A") (A')
                 (A") (A") (A') (A') (A') (A') (A') (A') (A") (A")
                 (A") (A') (A') (A') (A') (A') (A') (A') (A') (A')
                 (A") (A') (A') (A') (A') (A') (A') (A') (A') (A')
                 (A') (A') (A') (A') (A') (A") (A') (A') (A') (A')
                 (A') (A') (A") (A") (A') (A") (A") (A") (A') (A')
                 (A') (A') (A') (A') (A') (A') (A') (A') (A') (A')
                 (A') (A') (A") (A') (A') (A") (A") (A") (A") (A")
                 (A') (A') (A') (A') (A') (A') (A") (A") (A") (A')
                 (A') (A') (A') (A") (A") (A") (A') (A') (A') (A")
                 (A") (A') (A') (A') (A') (A') (A') (A") (A") (A")
                 (A") (A') (A') (A') (A') (A') (A') (A') (A') (A')
                 (A") (A') (A') (A') (A') (A') (A") (A") (A') (A")
                 (A") (A') (A') (A") (A') (A') (A') (A') (A') (A')
                 (A') (A') (A') (A') (A') (A') (A') (A') (A') (A')
                 (A') (A') (A')
 The electronic state is 1-A'.
 Alpha  occ. eigenvalues --  -10.54552 -10.54516 -10.54516 -10.54436 -10.54435
 Alpha  occ. eigenvalues --  -10.54397  -0.96255  -0.84522  -0.84521  -0.68807
 Alpha  occ. eigenvalues --   -0.68806  -0.60348  -0.53511  -0.51576  -0.49079
 Alpha  occ. eigenvalues --   -0.49078  -0.44079  -0.40486  -0.40484  -0.30957
 Alpha  occ. eigenvalues --   -0.30956
 Alpha virt. eigenvalues --   -0.00016   0.01313   0.01313   0.01792   0.01793
 Alpha virt. eigenvalues --    0.03375   0.03375   0.06151   0.07196   0.09133
 Alpha virt. eigenvalues --    0.09741   0.09742   0.10440   0.12898   0.12898
 Alpha virt. eigenvalues --    0.13248   0.13535   0.13536   0.14473   0.14473
 Alpha virt. eigenvalues --    0.14955   0.16128   0.16128   0.16387   0.16387
 Alpha virt. eigenvalues --    0.16782   0.19695   0.19695   0.22855   0.22856
 Alpha virt. eigenvalues --    0.22938   0.24689   0.25626   0.27615   0.30645
 Alpha virt. eigenvalues --    0.30646   0.32226   0.32227   0.34585   0.38795
 Alpha virt. eigenvalues --    0.38796   0.38878   0.38879   0.47923   0.49788
 Alpha virt. eigenvalues --    0.56082   0.58501   0.58679   0.58680   0.60235
 Alpha virt. eigenvalues --    0.60236   0.60324   0.60776   0.60777   0.64605
 Alpha virt. eigenvalues --    0.65702   0.65702   0.71756   0.77283   0.77284
 Alpha virt. eigenvalues --    0.77589   0.77591   0.81999   0.86589   0.87012
 Alpha virt. eigenvalues --    0.87013   0.91335   0.91645   0.91645   0.92674
 Alpha virt. eigenvalues --    0.94600   0.94601   0.99148   1.05445   1.05445
 Alpha virt. eigenvalues --    1.06572   1.13558   1.13558   1.19807   1.19807
 Alpha virt. eigenvalues --    1.34329   1.35201   1.49961   1.56196   1.56198
 Alpha virt. eigenvalues --    1.56225   1.61576   1.61661   1.61661   1.68446
 Alpha virt. eigenvalues --    1.68446   1.70294   1.70294   1.75129   1.80949
 Alpha virt. eigenvalues --    1.80950   1.85667   1.85669   1.88707   1.96745
 Alpha virt. eigenvalues --    1.96748   1.97930   1.97930   2.00282   2.02494
 Alpha virt. eigenvalues --    2.05741   2.05743   2.11115   2.11117   2.35444
 Alpha virt. eigenvalues --    2.37229   2.43249   2.44596   2.44598   2.50341
 Alpha virt. eigenvalues --    2.50341   2.64786   2.64788   2.68702   2.70297
 Alpha virt. eigenvalues --    2.71945   2.73592   2.73592   2.76439   2.76439
 Alpha virt. eigenvalues --    2.80203   2.85457   2.85458   2.93383   2.95472
 Alpha virt. eigenvalues --    2.95472   2.99609   2.99611   3.14140   3.18267
 Alpha virt. eigenvalues --    3.40855   3.40860   3.54215   3.54219   3.55543
 Alpha virt. eigenvalues --    3.71712   4.03898   4.03898   4.13005   4.19117
 Alpha virt. eigenvalues --    4.19117   4.86593  23.67627  24.05752  24.05760
 Alpha virt. eigenvalues --   24.17886  24.17896  24.28782
          Condensed to atoms (all electrons):
               1          2          3          4          5          6
     1  C    6.156002  -0.635172   0.971705  -0.956850   0.971723  -0.635144
     2  C   -0.635172   6.155897  -0.635073   0.971721  -0.956801   0.971690
     3  C    0.971705  -0.635073   6.155807  -0.635144   0.971692  -0.956776
     4  C   -0.956850   0.971721  -0.635144   6.156000  -0.635173   0.971704
     5  C    0.971723  -0.956801   0.971692  -0.635173   6.155899  -0.635073
     6  C   -0.635144   0.971690  -0.956776   0.971704  -0.635073   6.155806
     7  H    0.019088  -0.016751   0.011793  -0.016753   0.019084   0.306669
     8  H    0.306621   0.019115  -0.016759   0.011800  -0.016760   0.019115
     9  H    0.019113   0.306630   0.019110  -0.016759   0.011798  -0.016756
    10  H   -0.016753   0.019085   0.306668   0.019088  -0.016751   0.011793
    11  H    0.011800  -0.016759   0.019114   0.306622   0.019114  -0.016758
    12  H   -0.016759   0.011798  -0.016756   0.019113   0.306630   0.019110
               7          8          9         10         11         12
     1  C    0.019088   0.306621   0.019113  -0.016753   0.011800  -0.016759
     2  C   -0.016751   0.019115   0.306630   0.019085  -0.016759   0.011798
     3  C    0.011793  -0.016759   0.019110   0.306668   0.019114  -0.016756
     4  C   -0.016753   0.011800  -0.016759   0.019088   0.306622   0.019113
     5  C    0.019084  -0.016760   0.011798  -0.016751   0.019114   0.306630
     6  C    0.306669   0.019115  -0.016756   0.011793  -0.016758   0.019110
     7  H    0.476478   0.002720  -0.000678   0.000928  -0.000678   0.002721
     8  H    0.002720   0.476475   0.002721  -0.000678   0.000929  -0.000678
     9  H   -0.000678   0.002721   0.476472   0.002721  -0.000678   0.000929
    10  H    0.000928  -0.000678   0.002721   0.476478   0.002720  -0.000678
    11  H   -0.000678   0.000929  -0.000678   0.002720   0.476475   0.002721
    12  H    0.002721  -0.000678   0.000929  -0.000678   0.002721   0.476472
 Mulliken charges:
               1
     1  C   -0.195373
     2  C   -0.195380
     3  C   -0.195382
     4  C   -0.195370
     5  C   -0.195381
     6  C   -0.195379
     7  H    0.195378
     8  H    0.195377
     9  H    0.195378
    10  H    0.195378
    11  H    0.195377
    12  H    0.195378
 Sum of Mulliken charges =  -0.00000
 Mulliken charges with hydrogens summed into heavy atoms:
               1
     1  C    0.000004
     2  C   -0.000002
     3  C   -0.000004
     4  C    0.000007
     5  C   -0.000004
     6  C   -0.000002
 Electronic spatial extent (au):  <R**2>=            457.6092
 Charge=             -0.0000 electrons
 Dipole moment (field-independent basis, Debye):
    X=             -0.0000    Y=             -0.0000    Z=              0.0000  Tot=              0.0000
 Quadrupole moment (field-independent basis, Debye-Ang):
   XX=            -31.7422   YY=            -31.7425   ZZ=            -40.5101
   XY=             -0.0000   XZ=             -0.0000   YZ=              0.0000
 Traceless Quadrupole moment (field-independent basis, Debye-Ang):
   XX=              2.9227   YY=              2.9224   ZZ=             -5.8452
   XY=             -0.0000   XZ=             -0.0000   YZ=              0.0000
 Octapole moment (field-independent basis, Debye-Ang**2):
  XXX=             -0.0000  YYY=             -0.0000  ZZZ=              0.0000  XYY=              0.0000
  XXY=              0.0000  XXZ=              0.0000  XZZ=              0.0000  YZZ=              0.0000
  YYZ=              0.0000  XYZ=             -0.0000
 Hexadecapole moment (field-independent basis, Debye-Ang**3):
 XXXX=           -270.6627 YYYY=           -270.6666 ZZZZ=            -49.3000 XXXY=             -0.0010
 XXXZ=              0.0000 YYYX=             -0.0013 YYYZ=              0.0000 ZZZX=             -0.0000
 ZZZY=             -0.0000 XXYY=            -90.2218 XXZZ=            -64.8738 YYZZ=            -64.8736
 XXYZ=              0.0000 YYXZ=             -0.0000 ZZXY=             -0.0002
 N-N= 2.038888831553D+02 E-N=-9.459998219460D+02  KE= 2.312145599926D+02
 Symmetry A'   KE= 2.249967974439D+02
 Symmetry A"   KE= 6.217762548640D+00
 1\1\GINC-SH02-08N54\FOpt\RM062X\6-311++G(d,p)\C6H6\JLAPIER\11-Dec-2025
 \0\\# opt freq 6-311++g(d,p) guess=read geom=allcheck m062x\\Benzene\\
 0,1\C,-3.1968053411,0.1926782675,0.\C,-2.0111238372,0.9213710331,0.\C,
 -0.7871803952,0.2588655085,0.\C,-0.7489783841,-1.1323160502,0.\C,-1.93
 46598654,-1.8610091048,0.\C,-3.1586030446,-1.1985034275,0.\H,-4.081839
 3482,-1.7659058444,0.\H,-4.1498120034,0.7085282655,0.\H,-2.0408681353,
[...]
    R9        2.04782   0.00002   0.00000   0.00004   0.00004   2.04787
   R10        2.63001  -0.00009   0.00000  -0.00018  -0.00018   2.62983
   R11        2.04782   0.00002   0.00000   0.00005   0.00005   2.04787
   R12        2.04781   0.00002   0.00000   0.00007   0.00007   2.04788
    A1        2.09441  -0.00000   0.00000  -0.00003  -0.00003   2.09438
    A2        2.09439  -0.00000   0.00000  -0.00002  -0.00002   2.09437
    A3        2.09438   0.00001   0.00000   0.00006   0.00006   2.09443
    A4        2.09439  -0.00000   0.00000  -0.00001  -0.00001   2.09438
    A5        2.09441  -0.00000   0.00000  -0.00004  -0.00004   2.09437
    A6        2.09438   0.00001   0.00000   0.00006   0.00006   2.09443
    A7        2.09438   0.00001   0.00000   0.00005   0.00005   2.09443
    A8        2.09439  -0.00000   0.00000  -0.00001  -0.00001   2.09438
    A9        2.09441  -0.00000   0.00000  -0.00003  -0.00003   2.09438
   A10        2.09441  -0.00000   0.00000  -0.00003  -0.00003   2.09438
   A11        2.09438   0.00001   0.00000   0.00006   0.00006   2.09443
   A12        2.09439  -0.00000   0.00000  -0.00002  -0.00002   2.09437
   A13        2.09439  -0.00000   0.00000  -0.00001  -0.00001   2.09438
   A14        2.09441  -0.00000   0.00000  -0.00004  -0.00004   2.09437
   A15        2.09438   0.00001   0.00000   0.00006   0.00006   2.09443
   A16        2.09438   0.00001   0.00000   0.00005   0.00005   2.09443
   A17        2.09441  -0.00000   0.00000  -0.00003  -0.00003   2.09438
   A18        2.09439  -0.00000   0.00000  -0.00001  -0.00001   2.09438
    D1       -0.00000  -0.00000   0.00000   0.00000   0.00000   0.00000
    D2        3.14159   0.00000   0.00000   0.00000   0.00000   3.14159
    D3        3.14159   0.00000   0.00000   0.00000   0.00000   3.14159
    D4       -0.00000  -0.00000   0.00000   0.00000   0.00000   0.00000
    D5        0.00000   0.00000   0.00000   0.00000  -0.00000   0.00000
    D6        3.14159   0.00000   0.00000   0.00000   0.00000   3.14159
    D7        3.14159   0.00000   0.00000   0.00000   0.00000   3.14159
    D8        0.00000   0.00000   0.00000   0.00000   0.00000   0.00000
    D9        0.00000   0.00000   0.00000  -0.00000   0.00000   0.00000
   D10        3.14159  -0.00000   0.00000  -0.00000   0.00000   3.14159
   D11        3.14159  -0.00000   0.00000  -0.00000   0.00000   3.14159
   D12       -0.00000  -0.00000   0.00000  -0.00000   0.00000   0.00000
   D13       -0.00000   0.00000   0.00000   0.00000   0.00000   0.00000
   D14        3.14159   0.00000   0.00000   0.00000   0.00000   3.14159
   D15        3.14159   0.00000   0.00000   0.00000   0.00000   3.14159
   D16        0.00000  -0.00000   0.00000   0.00000   0.00000   0.00000
   D17        0.00000   0.00000   0.00000   0.00000   0.00000   0.00000
   D18        3.14159   0.00000   0.00000   0.00000   0.00000   3.14159
   D19        3.14159  -0.00000   0.00000   0.00000   0.00000   3.14159
   D20       -0.00000   0.00000   0.00000   0.00000   0.00000   0.00000
   D21        0.00000   0.00000   0.00000  -0.00000   0.00000   0.00000
   D22        3.14159   0.00000   0.00000  -0.00000   0.00000   3.14159
   D23        3.14159   0.00000   0.00000  -0.00000   0.00000   3.14159
   D24        0.00000   0.00000   0.00000  -0.00000  -0.00000   0.00000
         Item               Value     Threshold  Converged?
 Maximum Force            0.000086     0.000450     YES
 RMS     Force            0.000021     0.000300     YES
 Maximum Displacement     0.000125     0.001800     YES
 RMS     Displacement     0.000041     0.001200     YES
 Predicted change in Energy=-2.600502D-08
 Optimization completed.
    -- Stationary point found.
                           ----------------------------
                           !   Optimized Parameters   !
                           ! (Angstroms and Degrees)  !
 --------------------------                            --------------------------
 ! Name  Definition              Value          Derivative Info.                !
 --------------------------------------------------------------------------------
 ! R1    R(1,2)                  1.3917         -DE/DX =    0.0                 !
 ! R2    R(1,6)                  1.3917         -DE/DX =   -0.0001              !
 ! R3    R(1,8)                  1.0837         -DE/DX =    0.0                 !
 ! R4    R(2,3)                  1.3917         -DE/DX =   -0.0001              !
 ! R5    R(2,9)                  1.0837         -DE/DX =    0.0                 !
 ! R6    R(3,4)                  1.3917         -DE/DX =   -0.0001              !
 ! R7    R(3,10)                 1.0837         -DE/DX =    0.0                 !
 ! R8    R(4,5)                  1.3917         -DE/DX =    0.0                 !
 ! R9    R(4,11)                 1.0837         -DE/DX =    0.0                 !
 ! R10   R(5,6)                  1.3917         -DE/DX =   -0.0001              !
 ! R11   R(5,12)                 1.0837         -DE/DX =    0.0                 !
 ! R12   R(6,7)                  1.0837         -DE/DX =    0.0                 !
 ! A1    A(2,1,6)              120.001          -DE/DX =    0.0                 !
 ! A2    A(2,1,8)              120.0            -DE/DX =    0.0                 !
 ! A3    A(6,1,8)              119.9991         -DE/DX =    0.0                 !
 ! A4    A(1,2,3)              119.9999         -DE/DX =    0.0                 !
 ! A5    A(1,2,9)              120.0011         -DE/DX =    0.0                 !
 ! A6    A(3,2,9)              119.999          -DE/DX =    0.0                 !
 ! A7    A(2,3,4)              119.9991         -DE/DX =    0.0                 !
 ! A8    A(2,3,10)             119.9999         -DE/DX =    0.0                 !
 ! A9    A(4,3,10)             120.001          -DE/DX =    0.0                 !
 ! A10   A(3,4,5)              120.001          -DE/DX =    0.0                 !
 ! A11   A(3,4,11)             119.9991         -DE/DX =    0.0                 !
 ! A12   A(5,4,11)             119.9999         -DE/DX =    0.0                 !
 ! A13   A(4,5,6)              119.9999         -DE/DX =    0.0                 !
 ! A14   A(4,5,12)             120.001          -DE/DX =    0.0                 !
 ! A15   A(6,5,12)             119.9991         -DE/DX =    0.0                 !
 ! A16   A(1,6,5)              119.9991         -DE/DX =    0.0                 !
 ! A17   A(1,6,7)              120.0011         -DE/DX =    0.0                 !
 ! A18   A(5,6,7)              119.9998         -DE/DX =    0.0                 !
 ! D1    D(6,1,2,3)              0.0            -DE/DX =    0.0                 !
 ! D2    D(6,1,2,9)            180.0            -DE/DX =    0.0                 !
 ! D3    D(8,1,2,3)            180.0            -DE/DX =    0.0                 !
 ! D4    D(8,1,2,9)              0.0            -DE/DX =    0.0                 !
 ! D5    D(2,1,6,5)              0.0            -DE/DX =    0.0                 !
 ! D6    D(2,1,6,7)            180.0            -DE/DX =    0.0                 !
 ! D7    D(8,1,6,5)            180.0            -DE/DX =    0.0                 !
 ! D8    D(8,1,6,7)              0.0            -DE/DX =    0.0                 !
 ! D9    D(1,2,3,4)              0.0            -DE/DX =    0.0                 !
 ! D10   D(1,2,3,10)           180.0            -DE/DX =    0.0                 !
 ! D11   D(9,2,3,4)            180.0            -DE/DX =    0.0                 !
 ! D12   D(9,2,3,10)             0.0            -DE/DX =    0.0                 !
 ! D13   D(2,3,4,5)              0.0            -DE/DX =    0.0                 !
 ! D14   D(2,3,4,11)           180.0            -DE/DX =    0.0                 !
 ! D15   D(10,3,4,5)           180.0            -DE/DX =    0.0                 !
 ! D16   D(10,3,4,11)            0.0            -DE/DX =    0.0                 !
 ! D17   D(3,4,5,6)              0.0            -DE/DX =    0.0                 !
 ! D18   D(3,4,5,12)           180.0            -DE/DX =    0.0                 !
 ! D19   D(11,4,5,6)           180.0            -DE/DX =    0.0                 !
 ! D20   D(11,4,5,12)            0.0            -DE/DX =    0.0                 !
 ! D21   D(4,5,6,1)              0.0            -DE/DX =    0.0                 !
 ! D22   D(4,5,6,7)            180.0            -DE/DX =    0.0                 !
 ! D23   D(12,5,6,1)           180.0            -DE/DX =    0.0                 !
 ! D24   D(12,5,6,7)             0.0            -DE/DX =    0.0                 !
 --------------------------------------------------------------------------------
 GradGradGradGradGradGradGradGradGradGradGradGradGradGradGradGradGradGrad


 ----------------------------------------------------------------------

 Electric dipole moment (input orientation):
 (Debye = 10**-18 statcoulomb cm , SI units = C m)
                  (au)            (Debye)         (10**-30 SI)
   Tot        0.000000D+00      0.000000D+00      0.000000D+00
   x          0.000000D+00      0.000000D+00      0.000000D+00
   y          0.000000D+00      0.000000D+00      0.000000D+00
   z          0.000000D+00      0.000000D+00      0.000000D+00

 Dipole polarizability, Alpha (input orientation).
 (esu units = cm**3 , SI units = C**2 m**2 J**-1)
 Alpha(0;0):
               (au)            (10**-24 esu)      (10**-40 SI)
   iso        0.643963D+02      0.954254D+01      0.106175D+02
   aniso      0.362518D+02      0.537196D+01      0.597712D+01
   xx         0.764544D+02      0.113294D+02      0.126056D+02
   yx        -0.508578D-01     -0.753635D-02     -0.838532D-02
   yy         0.765060D+02      0.113370D+02      0.126141D+02
   zx         0.000000D+00      0.000000D+00      0.000000D+00
   zy         0.000000D+00      0.000000D+00      0.000000D+00
   zz         0.402285D+02      0.596125D+01      0.663278D+01

 ----------------------------------------------------------------------

 Dipole orientation:
     6         -3.82393690         -2.73537311         -3.81084544
     6         -1.69014580         -1.20901037         -3.62723900
     6         -0.75255042         -0.53832117         -1.26332933
     6         -1.94880608         -1.39403758          0.91688229
     6         -4.08259741         -2.92040048          0.73327632
     6         -5.02019233         -3.59108935         -1.63063329
     1         -6.68168070         -4.77960023         -1.77359547
     1         -4.55398330         -3.25759650         -5.65146986
     1         -0.75867376         -0.54270137         -5.32486827
     1          0.90893762          0.65018948         -1.12036434
     1         -1.21876068         -0.87181490          2.75750818
     1         -5.01406815         -3.58670855          2.43090700

 Electric dipole moment (dipole orientation):
 (Debye = 10**-18 statcoulomb cm , SI units = C m)
                  (au)            (Debye)         (10**-30 SI)
   Tot        0.000000D+00      0.000000D+00      0.000000D+00
   x          0.000000D+00      0.000000D+00      0.000000D+00
   y          0.000000D+00      0.000000D+00      0.000000D+00
   z          0.000000D+00      0.000000D+00      0.000000D+00

 Dipole polarizability, Alpha (dipole orientation).
 (esu units = cm**3 , SI units = C**2 m**2 J**-1)
 Alpha(0;0):
               (au)            (10**-24 esu)      (10**-40 SI)
   iso        0.643963D+02      0.954254D+01      0.106175D+02
   aniso      0.362518D+02      0.537196D+01      0.597712D+01
   xx         0.641719D+02      0.950930D+01      0.105805D+02
   yx         0.171274D+02      0.253802D+01      0.282393D+01
   yy         0.524803D+02      0.777677D+01      0.865283D+01
   zx        -0.651173D-02     -0.964938D-03     -0.107364D-02
   zy        -0.465803D-02     -0.690249D-03     -0.768005D-03
   zz         0.765366D+02      0.113416D+02      0.126192D+02

 ----------------------------------------------------------------------
 1\1\GINC-SH02-08N54\Freq\RM062X\6-311++G(d,p)\C6H6\JLAPIER\11-Dec-2025
 \0\\#N Geom=AllCheck Guess=TCheck SCRF=Check GenChk RM062X/6-311++G(d,
 p) Freq\\Benzene\\0,1\C,-3.1968053411,0.1926782675,0.\C,-2.0111238372,
 0.9213710331,0.\C,-0.7871803952,0.2588655085,0.\C,-0.7489783841,-1.132
 3160502,0.\C,-1.9346598654,-1.8610091048,0.\C,-3.1586030446,-1.1985034
 275,0.\H,-4.0818393482,-1.7659058444,0.\H,-4.1498120034,0.7085282655,0
 .\H,-2.0408681353,2.0046206419,0.\H,0.1360565992,0.8262665929,0.\H,0.2
 040282033,-1.6481670557,0.\H,-1.9049144479,-2.9442588266,0.\\Version=E
 S64L-G16RevB.01\State=1-A'\HF=-232.1984105\RMSD=1.010e-09\RMSF=3.743e-
 05\ZeroPoint=0.1011018\Thermal=0.1054862\Dipole=0.0000001,-0.0000002,0
 .\DipoleDeriv=0.0434557,-0.0560087,0.,-0.0558139,-0.0303582,0.,0.,0.,-
 0.1429345,-0.0603674,-0.0032565,0.,-0.0034306,0.0734219,0.,0.,0.,-0.14
 29344,0.0384352,0.060206,0.,0.0601854,-0.0225078,0.,0.,0.,-0.1429608,0
 .0434561,-0.0560089,0.,-0.0558142,-0.030358,0.,0.,0.,-0.1429344,-0.060
 3681,-0.0032565,0.,-0.0034306,0.0734219,0.,0.,0.,-0.1429346,0.0384354,
 0.0602059,0.,0.0601856,-0.0225074,0.,0.,0.,-0.1429607,-0.0427032,-0.06
 84225,0.,-0.0684203,0.0265781,0.,0.,0.,0.1429485,-0.0474639,0.0631965,
 0.,0.0630709,0.0344809,0.,0.,0.,0.1429392,0.0686438,0.0042851,0.,0.004
 4083,-0.0816153,0.,0.,0.,0.142942,-0.0427032,-0.0684226,0.,-0.0684199,
 0.0265784,0.,0.,0.,0.1429486,-0.0474642,0.0631966,0.,0.0630712,0.03448
 07,0.,0.,0.,0.1429391,0.0686438,0.0042854,0.,0.0044082,-0.0816152,0.,0
 .,0.,0.142942\Polar=76.4543539,-0.0508578,76.5059904,0.,0.,40.2285004\
 Quadrupole=2.1729162,2.1728335,-4.3457497,0.0001059,0.,0.\PG=CS [SG(C6
 H6)]\NImag=0\\0.73619899,-0.03334903,0.69240331,0.,0.,0.13907417,-0.28
 595954,-0.05598127,0.,0.67438265,-0.13260044,-0.19048424,0.,-0.0020435
 3,0.75414240,0.,0.,-0.06543698,0.,0.,0.13907922,-0.05895405,-0.0331145
 7,0.,-0.29582628,0.12664530,0.,0.73194525,0.02562042,0.07504784,0.,0.0
 5001515,-0.17996675,0.,0.03586045,0.69574450,0.,0.,0.00849368,0.,0.,-0
 .06545031,0.,0.,0.13935452,-0.02019442,-0.03406916,0.,0.03826588,0.030
 55501,0.,-0.13240475,0.04391312,0.,0.73619785,-0.03406916,-0.06465659,
 0.,0.08928670,-0.02240881,0.,-0.03271964,-0.34347792,0.,-0.03334877,0.
 69240379,0.,0.,-0.00844895,0.,0.,0.00850209,0.,0.,-0.06544186,0.,0.,0.
 13907428,0.03826587,0.08928668,0.,-0.08304210,-0.00224926,0.,0.0446847
 5,-0.08558872,0.,-0.28595924,-0.05598112,0.,0.67438280,0.03055500,-0.0
 2240878,0.,-0.00224925,-0.00180694,0.,-0.02685256,-0.02859576,0.,-0.13
 260032,-0.19048421,0.,-0.00204412,0.75414214,0.,0.,0.00850208,0.,0.,-0
 .00844892,0.,0.,0.00849368,0.,0.,-0.06543703,0.,0.,0.13907923,-0.13240
 476,-0.03271957,0.,0.04468475,-0.02685258,0.,-0.02404581,0.03627821,0.
 ,-0.05895407,-0.03311459,0.,-0.29582655,0.12664550,0.,0.73194505,0.043
 91319,-0.34347756,0.,-0.08558875,-0.02859580,0.,0.03627821,-0.06078202
 ,0.,0.02562042,0.07504786,0.,0.05001533,-0.17996686,0.,0.03586026,0.69
 574453,0.,0.,-0.06544187,0.,0.,0.00849367,0.,0.,-0.00843774,0.,0.,0.00
 849370,0.,0.,-0.06545030,0.,0.,0.13935456,0.00463424,0.00288410,0.,0.0
 0182967,0.00069718,0.,0.00019051,0.00101750,0.,-0.00341525,0.00395241,
 0.,-0.01762308,-0.01709164,0.,-0.26576971,-0.12667366,0.,0.27965822,-0
 .02836103,-0.01043020,0.,0.00129711,-0.00576911,0.,0.00101735,-0.00083
 977,0.,0.00335258,-0.00052465,0.,0.01415275,0.01182767,0.,-0.12667272,
 -0.13750701,0.,0.13607703,0.14187385,0.,0.,0.00368073,0.,0.,0.00744123
 ,0.,0.,-0.00076560,0.,0.,0.00744099,0.,0.,0.00368026,0.,0.,-0.03850812
 ,0.,0.,0.02636226,-0.27948208,0.11923724,0.,-0.01767932,0.01543614,0.,
 -0.00298635,-0.00408076,0.,0.00030357,-0.00094395,0.,0.00190206,-0.000
 28099,0.,0.00320933,-0.00213142,0.,0.00059332,0.00041799,0.,0.29432126
 ,0.11922725,-0.12383518,0.,-0.01580475,0.01192585,0.,-0.00348276,-0.00
 094696,0.,-0.00094650,-0.00093463,0.,-0.00088063,-0.00584123,0.,0.0291
 1897,-0.00899835,0.,-0.00043881,0.00088871,0.,-0.12803281,0.12717130,0
 .,0.,-0.03823504,0.,0.,0.00369277,0.,0.,0.00744696,0.,0.,-0.00076733,0
 .,0.,0.00744650,0.,0.,0.00368441,0.,0.,-0.00413911,0.,0.,0.02607255,0.
 00573714,-0.02765974,0.,-0.05949098,0.00784667,0.,0.00436874,0.0285310
 9,0.,-0.00472972,0.00247688,0.,-0.00144380,-0.00006190,0.,-0.00441114,
 -0.00276137,0.,0.00009328,-0.00140299,0.,0.00081065,0.00056652,0.,0.05
 808051,0.00358129,-0.01148931,0.,0.00785567,-0.34383589,0.,-0.00271866
 ,-0.01015583,0.,0.00307644,0.00078998,0.,-0.00005920,0.00081284,0.,-0.
 00335941,0.00047772,0.,0.00023116,-0.00066607,0.,-0.00029717,0.0006742
 0,0.,-0.00842455,0.36341924,0.,0.,0.00369233,0.,0.,-0.03823219,0.,0.,0
 .00368346,0.,0.,0.00744619,0.,0.,-0.00076730,0.,0.,0.00744689,0.,0.,0.
 00009180,0.,0.,-0.00414230,0.,0.,0.02607085,-0.00341524,0.00395240,0.,
 -0.01762300,-0.01709160,0.,-0.26577022,-0.12667366,0.,0.00463421,0.002
 88409,0.,0.00182967,0.00069717,0.,0.00019052,0.00101750,0.,-0.00002777
 ,-0.00010066,0.,-0.00098342,-0.00085788,0.,0.00082000,0.00030327,0.,0.
 27965866,0.00335258,-0.00052466,0.,0.01415274,0.01182767,0.,-0.1266726
 4,-0.13750673,0.,-0.02836108,-0.01043024,0.,0.00129711,-0.00576911,0.,
 0.00101735,-0.00083977,0.,-0.00010066,0.00007417,0.,0.00077630,0.00041
 061,0.,-0.00055372,0.00066180,0.,0.13607701,0.14187362,0.,0.,0.0074409
 8,0.,0.,0.00368023,0.,0.,-0.03850808,0.,0.,0.00368075,0.,0.,0.00744123
 ,0.,0.,-0.00076560,0.,0.,-0.00123748,0.,0.,0.00009179,0.,0.,-0.0041387
 4,0.,0.,0.02636222,0.00030357,-0.00094395,0.,0.00190206,-0.00028099,0.
 ,0.00320933,-0.00213143,0.,-0.27948120,0.11923691,0.,-0.01767936,0.015
 43616,0.,-0.00298636,-0.00408077,0.,-0.00098343,0.00077630,0.,-0.00003
 849,0.00009409,0.,0.00002948,-0.00019465,0.,0.00059332,0.00041799,0.,0
 .29432042,-0.00094650,-0.00093463,0.,-0.00088063,-0.00584123,0.,0.0291
 1894,-0.00899833,0.,0.11922696,-0.12383524,0.,-0.01580474,0.01192583,0
 .,-0.00348276,-0.00094695,0.,-0.00085788,0.00041061,0.,0.00009409,0.00
 008529,0.,0.00143732,-0.00059962,0.,-0.00043880,0.00088871,0.,-0.12803
 250,0.12717136,0.,0.,-0.00076733,0.,0.,0.00744650,0.,0.,0.00368440,0.,
 0.,-0.03823516,0.,0.,0.00369278,0.,0.,0.00744696,0.,0.,0.00009179,0.,0
 .,-0.00124188,0.,0.,0.00009068,0.,0.,-0.00413911,0.,0.,0.02607266,-0.0
 0472971,0.00247687,0.,-0.00144380,-0.00006190,0.,-0.00441114,-0.002761
 37,0.,0.00573713,-0.02765976,0.,-0.05949102,0.00784697,0.,0.00436874,0
 .02853105,0.,0.00082000,-0.00055371,0.,0.00002948,0.00143731,0.,0.0001
 3584,0.00000581,0.,0.00009328,-0.00140299,0.,0.00081065,0.00056651,0.,
 0.05808055,0.00307644,0.00078999,0.,-0.00005920,0.00081284,0.,-0.00335
 941,0.00047772,0.,0.00358130,-0.01148935,0.,0.00785592,-0.34383559,0.,
 -0.00271867,-0.01015578,0.,0.00030327,0.00066180,0.,-0.00019465,-0.000
 59962,0.,0.00000581,-0.00008907,0.,0.00023116,-0.00066608,0.,-0.000297
 17,0.00067421,0.,-0.00842479,0.36341892,0.,0.,0.00744619,0.,0.,-0.0007
 6730,0.,0.,0.00744689,0.,0.,0.00369233,0.,0.,-0.03823221,0.,0.,0.00368
 344,0.,0.,-0.00413874,0.,0.,0.00009068,0.,0.,-0.00124168,0.,0.,0.00009
 180,0.,0.,-0.00414229,0.,0.,0.02607088\\-0.00001740,0.00005648,0.,-0.0
 0007135,0.00006047,0.,0.00010489,0.00003132,0.,0.00001721,-0.00005611,
 0.,0.00007108,-0.00006056,0.,-0.00010477,-0.00003110,0.,0.00001898,0.0
 0001114,0.,0.00001164,-0.00001085,0.,0.00000482,-0.00001713,0.,-0.0000
 1894,-0.00001132,0.,-0.00001145,0.00001064,0.,-0.00000470,0.00001702,0
 .\\\@


 PENOTUS DIED A HUNDRED YEARS OLD WANTING BUT TWO...
 AND HE USED TO SAY BEFORE HE DIED, HAVING SPENT HIS
 WHOLE LIFE IN VAINLY SEARCHING AFTER THE PHILOSOPHER'S
 STONE, THAT IF HE HAD A MORTAL ENEMY HE DID NOT DARE
 TO ENCOUNTER OPENLY, HE WOULD ADVISE HIM ABOVE ALL
 THINGS TO GIVE HIMSELF UP TO THE STUDY AND PRACTICE
 OF ALCHEMY.  --  NICOLAS LEMERY, M.D.
 "A COURSE OF CHYMISTRY", WALTER KETTILBY, LONDON, 1686
 Job cpu time:       0 days  0 hours 17 minutes 31.7 seconds.
 Elapsed time:       0 days  0 hours  4 minutes 25.5 seconds.
 File lengths (MBytes):  RWF=     72 Int=      0 D2E=      0 Chk=     34 Scr=      1
 Normal termination of Gaussian 16 at Thu Dec 11 11:37:48 2025.
